Ne    ONCVPSP-4.0.1  r_core=   1.30478   1.50622
10.0000      8.0000      220429    zatom,zion,pspd
8      11   1     4   400     0    pspcod,pspxc,lmax,lloc,mmax,r2well
3.99000000  2.50000000  0.00000000    rchrg fchrg qchrg
2     2     0     0     0    nproj
1     1           extension_switch
0                         2.5624556917306E+00 -4.7484649299225E-01
1  0.0000000000000E+00 -2.6803205210868E-09 -9.8502747625240E-10
2  1.0000000000000E-02  1.0705803275352E-01  1.6576874218205E-02
3  2.0000000000000E-02  2.1364431989378E-01  3.3168359189821E-02
4  3.0000000000000E-02  3.1929059669694E-01  4.9789472592272E-02
5  4.0000000000000E-02  4.2353551708521E-01  6.6456033462215E-02
6  5.0000000000000E-02  5.2592800581841E-01  8.3185031911451E-02
7  6.0000000000000E-02  6.2603048407701E-01  9.9994962404674E-02
8  7.0000000000000E-02  7.2342192944578E-01  1.1690610963565E-01
9  8.0000000000000E-02  8.1770073398739E-01  1.3394077702343E-01
10  9.0000000000000E-02  9.0848732735620E-01  1.5112344904608E-01
11  1.0000000000000E-01  9.9542653568633E-01  1.6848088001393E-01
12  1.1000000000000E-01  1.0781896512292E+00  1.8604210343063E-01
13  1.2000000000000E-01  1.1564761923383E+00  2.0383835777012E-01
14  1.3000000000000E-01  1.2300153383232E+00  2.2190292627789E-01
15  1.4000000000000E-01  1.2985670288339E+00  2.4027089025286E-01
16  1.5000000000000E-01  1.3619227226988E+00  2.5897879714553E-01
17  1.6000000000000E-01  1.4199058164378E+00  2.7806424668393E-01
18  1.7000000000000E-01  1.4723717279049E+00  2.9756540007363E-01
19  1.8000000000000E-01  1.5192076556023E+00  3.1752041907809E-01
20  1.9000000000000E-01  1.5603320290505E+00  3.3796684343444E-01
21  2.0000000000000E-01  1.5956936701211E+00  3.5894091656732E-01
22  2.1000000000000E-01  1.6252706893580E+00  3.8047687089708E-01
23  2.2000000000000E-01  1.6490691449581E+00  4.0260618517420E-01
24  2.3000000000000E-01  1.6671214951957E+00  4.2535682718355E-01
25  2.4000000000000E-01  1.6794848775990E+00  4.4875249583186E-01
26  2.5000000000000E-01  1.6862392500813E+00  4.7281187704442E-01
27  2.6000000000000E-01  1.6874854304704E+00  4.9754792804116E-01
28  2.7000000000000E-01  1.6833430714339E+00  5.2296720443375E-01
29  2.8000000000000E-01  1.6739486076788E+00  5.4906924418223E-01
30  2.9000000000000E-01  1.6594532115027E+00  5.7584602177723E-01
31  3.0000000000000E-01  1.6400207913133E+00  6.0328148508139E-01
32  3.1000000000000E-01  1.6158260656528E+00  6.3135118608508E-01
33  3.2000000000000E-01  1.5870527425911E+00  6.6002201542617E-01
34  3.3000000000000E-01  1.5538918311511E+00  6.8925204891454E-01
35  3.4000000000000E-01  1.5165401077649E+00  7.1899051251614E-01
36  3.5000000000000E-01  1.4751987566874E+00  7.4917787031973E-01
37  3.6000000000000E-01  1.4300721989150E+00  7.7974603796485E-01
38  3.7000000000000E-01  1.3813671195373E+00  8.1061872188832E-01
39  3.8000000000000E-01  1.3292916986895E+00  8.4171188258584E-01
40  3.9000000000000E-01  1.2740550464588E+00  8.7293431792448E-01
41  4.0000000000000E-01  1.2158668373254E+00  9.0418836041781E-01
42  4.1000000000000E-01  1.1549371350819E+00  9.3537068032989E-01
43  4.2000000000000E-01  1.0914763947548E+00  9.6637318454169E-01
44  4.3000000000000E-01  1.0256956239505E+00  9.9708399933155E-01
45  4.4000000000000E-01  9.5780668232819E-01  1.0273885236229E+00
46  4.5000000000000E-01  8.8802269465293E-01  1.0571705378676E+00
47  4.6000000000000E-01  8.1655855015720E-01  1.0863133525908E+00
48  4.7000000000000E-01  7.4363145879984E-01  1.1147009797406E+00
49  4.8000000000000E-01  6.6946153350131E-01  1.1422193093920E+00
50  4.9000000000000E-01  5.9427236658394E-01  1.1687572740481E+00
51  5.0000000000000E-01  5.1829156847884E-01  1.1942079827860E+00
52  5.1000000000000E-01  4.4175123728303E-01  1.2184698078022E+00
53  5.2000000000000E-01  3.6488832895723E-01  1.2414474065239E+00
54  5.3000000000000E-01  2.8794489982713E-01  1.2630526633644E+00
55  5.4000000000000E-01  2.1116819555879E-01  1.2832055363905E+00
56  5.5000000000000E-01  1.3481056387854E-01  1.3018347956301E+00
57  5.6000000000000E-01  5.9129171943818E-02  1.3188786414452E+00
58  5.7000000000000E-01 -1.5614486620416E-02  1.3342851933113E+00
59  5.8000000000000E-01 -8.9155305501284E-02  1.3480128414383E+00
60  5.9000000000000E-01 -1.6122550595754E-01  1.3600304559144E+00
61  6.0000000000000E-01 -2.3155580418273E-01  1.3703174504039E+00
62  6.1000000000000E-01 -2.9987680122699E-01  1.3788636998550E+00
63  6.2000000000000E-01 -3.6592058573487E-01  1.3856693141203E+00
64  6.3000000000000E-01 -4.2942253462896E-01  1.3907442718294E+00
65  6.4000000000000E-01 -4.9012329191356E-01  1.3941079212241E+00
66  6.5000000000000E-01 -5.4777090108472E-01  1.3957883569489E+00
67  6.6000000000000E-01 -6.0212306230955E-01  1.3958216839157E+00
68  6.7000000000000E-01 -6.5294948166558E-01  1.3942511813262E+00
69  6.8000000000000E-01 -7.0003427639247E-01  1.3911263816681E+00
70  6.9000000000000E-01 -7.4317839737592E-01  1.3865020810005E+00
71  7.0000000000000E-01 -7.8220202801996E-01  1.3804372980615E+00
72  7.1000000000000E-01 -8.1694691731905E-01  1.3729942006503E+00
73  7.2000000000000E-01 -8.4727860435507E-01  1.3642370183429E+00
74  7.3000000000000E-01 -8.7308849164048E-01  1.3542309608745E+00
75  7.4000000000000E-01 -8.9429572571921E-01  1.3430411614601E+00
76  7.5000000000000E-01 -9.1084884521778E-01  1.3307316639273E+00
77  7.6000000000000E-01 -9.2272715909343E-01  1.3173644718005E+00
78  7.7000000000000E-01 -9.2994182112126E-01  1.3029986764238E+00
79  7.8000000000000E-01 -9.3253657065288E-01  1.2876896798468E+00
80  7.9000000000000E-01 -9.3058811430663E-01  1.2714885265510E+00
81  8.0000000000000E-01 -9.2420612844125E-01  1.2544413561937E+00
82  8.1000000000000E-01 -9.1353286794058E-01  1.2365889874133E+00
83  8.2000000000000E-01 -8.9874237290210E-01  1.2179666404219E+00
84  8.3000000000000E-01 -8.8003927117872E-01  1.1986038036386E+00
85  8.4000000000000E-01 -8.5765718126175E-01  1.1785242470388E+00
86  8.5000000000000E-01 -8.3185672660378E-01  1.1577461822498E+00
87  8.6000000000000E-01 -8.0292317904746E-01  1.1362825667605E+00
88  8.7000000000000E-01 -7.7116375543453E-01  1.1141415469818E+00
89  8.8000000000000E-01 -7.3690459760520E-01  1.0913270323331E+00
90  8.9000000000000E-01 -7.0048747175002E-01  1.0678393900918E+00
91  9.0000000000000E-01 -6.6226622833833E-01  1.0436762484716E+00
92  9.1000000000000E-01 -6.2260306852171E-01  1.0188333933196E+00
93  9.2000000000000E-01 -5.8186466690668E-01  9.9330574200016E-01
94  9.3000000000000E-01 -5.4041820383066E-01  9.6708837647958E-01
95  9.4000000000000E-01 -4.9862736269057E-01  9.4017761638066E-01
96  9.5000000000000E-01 -4.5684834941144E-01  9.1257211186026E-01
97  9.6000000000000E-01 -4.1542599176484E-01  8.8427393559388E-01
98  9.7000000000000E-01 -3.7468997592821E-01  8.5528965294311E-01
99  9.8000000000000E-01 -3.3495127641098E-01  8.2563134953960E-01
100  9.9000000000000E-01 -2.9649883326707E-01  7.9531759604312E-01
101  1.0000000000000E+00 -2.5959652739276E-01  7.6437433071551E-01
102  1.0100000000000E+00 -2.2448050071400E-01  7.3283564168240E-01
103  1.0200000000000E+00 -1.9135686325326E-01  7.0074443231296E-01
104  1.0300000000000E+00 -1.6039982350088E-01  6.6815295501061E-01
105  1.0400000000000E+00 -1.3175027229022E-01  6.3512320084102E-01
106  1.0500000000000E+00 -1.0551484357899E-01  6.0172713479627E-01
107  1.0600000000000E+00 -8.1765468273798E-02  5.6804676906694E-01
108  1.0700000000000E+00 -6.0539429636571E-02  5.3417406941661E-01
109  1.0800000000000E+00 -4.1839920968977E-02  5.0021069259280E-01
110  1.0900000000000E+00 -2.5637098344380E-02  4.6626755560296E-01
111  1.1000000000000E+00 -1.1869613259131E-02  4.3246424059247E-01
112  1.1100000000000E+00 -4.4660232611531E-04  3.9892824193553E-01
113  1.1200000000000E+00  8.7498962976559E-03  3.6579406492673E-01
114  1.1300000000000E+00  1.5862137112715E-02  3.3320218811601E-01
115  1.1400000000000E+00  2.1053515946208E-02  3.0129790378595E-01
116  1.1500000000000E+00  2.4505122806441E-02  2.7023005331933E-01
117  1.1600000000000E+00  2.6412053727668E-02  2.4014967617162E-01
118  1.1700000000000E+00  2.6979540705811E-02  2.1120859284618E-01
119  1.1800000000000E+00  2.6418962177804E-02  1.8355794361003E-01
120  1.1900000000000E+00  2.4943798903681E-02  1.5734670568311E-01
121  1.2000000000000E+00  2.2765601487610E-02  1.3272021225118E-01
122  1.2100000000000E+00  2.0090036116191E-02  1.0981869688676E-01
123  1.2200000000000E+00  1.7113078313929E-02  8.8775886189270E-02
124  1.2300000000000E+00  1.4017384709475E-02  6.9717667669840E-02
125  1.2400000000000E+00  1.0968782650913E-02  5.2760891891484E-02
126  1.2500000000000E+00  8.1016815780644E-03  3.8013802914059E-02
127  1.2600000000000E+00  5.5367890742486E-03  2.5571397993595E-02
128  1.2700000000000E+00  3.3840881081279E-03  1.5515001951503E-02
129  1.2800000000000E+00  1.7247569418232E-03  7.9143755787178E-03
130  1.2900000000000E+00  6.0994822374224E-04  2.8240442091403E-03
131  1.3000000000000E+00  6.9344152895152E-05  3.2675009712882E-04
132  1.3100000000000E+00 -5.6876772756029E-06 -2.7118921466473E-05
133  1.3200000000000E+00  4.1055061713032E-07  1.9402586173940E-06
134  1.33 -0.  0.
135  1.34  0.  0.
136  1.35  0.  0.
137  1.36  0.  0.
138  1.37  0.  0.
139  1.38  0.  0.
140  1.39  0.  0.
141  1.40  0.  0.
142  1.41  0.  0.
143  1.42  0.  0.
144  1.43  0.  0.
145  1.44  0.  0.
146  1.45  0.  0.
147  1.46  0.  0.
148  1.47  0.  0.
149  1.48  0.  0.
150  1.49  0.  0.
151  1.50  0.  0.
152  1.51  0.  0.
153  1.52  0.  0.
154  1.53  0.  0.
155  1.54  0.  0.
156  1.55  0.  0.
157  1.56  0.  0.
158  1.57  0.  0.
159  1.58  0.  0.
160  1.59  0.  0.
161  1.60  0.  0.
162  1.61  0.  0.
163  1.62  0.  0.
164  1.63  0.  0.
165  1.64  0.  0.
166  1.65  0.  0.
167  1.66  0.  0.
168  1.67  0.  0.
169  1.68  0.  0.
170  1.69  0.  0.
171  1.70  0.  0.
172  1.71  0.  0.
173  1.72  0.  0.
174  1.73  0.  0.
175  1.74  0.  0.
176  1.75  0.  0.
177  1.76  0.  0.
178  1.77  0.  0.
179  1.78  0.  0.
180  1.79  0.  0.
181  1.80  0.  0.
182  1.81  0.  0.
183  1.82  0.  0.
184  1.83  0.  0.
185  1.84  0.  0.
186  1.85  0.  0.
187  1.86  0.  0.
188  1.87  0.  0.
189  1.88  0.  0.
190  1.89  0.  0.
191  1.90  0.  0.
192  1.91  0.  0.
193  1.92  0.  0.
194  1.93  0.  0.
195  1.94  0.  0.
196  1.95  0.  0.
197  1.96  0.  0.
198  1.97  0.  0.
199  1.98  0.  0.
200  1.99  0.  0.
201  2.00  0.  0.
202  2.01  0.  0.
203  2.02  0.  0.
204  2.03  0.  0.
205  2.04  0.  0.
206  2.05  0.  0.
207  2.06  0.  0.
208  2.07  0.  0.
209  2.08  0.  0.
210  2.09  0.  0.
211  2.10  0.  0.
212  2.11  0.  0.
213  2.12  0.  0.
214  2.13  0.  0.
215  2.14  0.  0.
216  2.15  0.  0.
217  2.16  0.  0.
218  2.17  0.  0.
219  2.18  0.  0.
220  2.19  0.  0.
221  2.20  0.  0.
222  2.21  0.  0.
223  2.22  0.  0.
224  2.23  0.  0.
225  2.24  0.  0.
226  2.25  0.  0.
227  2.26  0.  0.
228  2.27  0.  0.
229  2.28  0.  0.
230  2.29  0.  0.
231  2.30  0.  0.
232  2.31  0.  0.
233  2.32  0.  0.
234  2.33  0.  0.
235  2.34  0.  0.
236  2.35  0.  0.
237  2.36  0.  0.
238  2.37  0.  0.
239  2.38  0.  0.
240  2.39  0.  0.
241  2.40  0.  0.
242  2.41  0.  0.
243  2.42  0.  0.
244  2.43  0.  0.
245  2.44  0.  0.
246  2.45  0.  0.
247  2.46  0.  0.
248  2.47  0.  0.
249  2.48  0.  0.
250  2.49  0.  0.
251  2.50  0.  0.
252  2.51  0.  0.
253  2.52  0.  0.
254  2.53  0.  0.
255  2.54  0.  0.
256  2.55  0.  0.
257  2.56  0.  0.
258  2.57  0.  0.
259  2.58  0.  0.
260  2.59  0.  0.
261  2.60  0.  0.
262  2.61  0.  0.
263  2.62  0.  0.
264  2.63  0.  0.
265  2.64  0.  0.
266  2.65  0.  0.
267  2.66  0.  0.
268  2.67  0.  0.
269  2.68  0.  0.
270  2.69  0.  0.
271  2.70  0.  0.
272  2.71  0.  0.
273  2.72  0.  0.
274  2.73  0.  0.
275  2.74  0.  0.
276  2.75  0.  0.
277  2.76  0.  0.
278  2.77  0.  0.
279  2.78  0.  0.
280  2.79  0.  0.
281  2.80  0.  0.
282  2.81  0.  0.
283  2.82  0.  0.
284  2.83  0.  0.
285  2.84  0.  0.
286  2.85  0.  0.
287  2.86  0.  0.
288  2.87  0.  0.
289  2.88  0.  0.
290  2.89  0.  0.
291  2.90  0.  0.
292  2.91  0.  0.
293  2.92  0.  0.
294  2.93  0.  0.
295  2.94  0.  0.
296  2.95  0.  0.
297  2.96  0.  0.
298  2.97  0.  0.
299  2.98  0.  0.
300  2.99  0.  0.
301  3.00  0.  0.
302  3.01  0.  0.
303  3.02  0.  0.
304  3.03  0.  0.
305  3.04  0.  0.
306  3.05  0.  0.
307  3.06  0.  0.
308  3.07  0.  0.
309  3.08  0.  0.
310  3.09  0.  0.
311  3.10  0.  0.
312  3.11  0.  0.
313  3.12  0.  0.
314  3.13  0.  0.
315  3.14  0.  0.
316  3.15  0.  0.
317  3.16  0.  0.
318  3.17  0.  0.
319  3.18  0.  0.
320  3.19  0.  0.
321  3.20  0.  0.
322  3.21  0.  0.
323  3.22  0.  0.
324  3.23  0.  0.
325  3.24  0.  0.
326  3.25  0.  0.
327  3.26  0.  0.
328  3.27  0.  0.
329  3.28  0.  0.
330  3.29  0.  0.
331  3.30  0.  0.
332  3.31  0.  0.
333  3.32  0.  0.
334  3.33  0.  0.
335  3.34  0.  0.
336  3.35  0.  0.
337  3.36  0.  0.
338  3.37  0.  0.
339  3.38  0.  0.
340  3.39  0.  0.
341  3.40  0.  0.
342  3.41  0.  0.
343  3.42  0.  0.
344  3.43  0.  0.
345  3.44  0.  0.
346  3.45  0.  0.
347  3.46  0.  0.
348  3.47  0.  0.
349  3.48  0.  0.
350  3.49  0.  0.
351  3.50  0.  0.
352  3.51  0.  0.
353  3.52  0.  0.
354  3.53  0.  0.
355  3.54  0.  0.
356  3.55  0.  0.
357  3.56  0.  0.
358  3.57  0.  0.
359  3.58  0.  0.
360  3.59  0.  0.
361  3.60  0.  0.
362  3.61  0.  0.
363  3.62  0.  0.
364  3.63  0.  0.
365  3.64  0.  0.
366  3.65  0.  0.
367  3.66  0.  0.
368  3.67  0.  0.
369  3.68  0.  0.
370  3.69  0.  0.
371  3.70  0.  0.
372  3.71  0.  0.
373  3.72  0.  0.
374  3.73  0.  0.
375  3.74  0.  0.
376  3.75  0.  0.
377  3.76  0.  0.
378  3.77  0.  0.
379  3.78  0.  0.
380  3.79  0.  0.
381  3.80  0.  0.
382  3.81  0.  0.
383  3.82  0.  0.
384  3.83  0.  0.
385  3.84  0.  0.
386  3.85  0.  0.
387  3.86  0.  0.
388  3.87  0.  0.
389  3.88  0.  0.
390  3.89  0.  0.
391  3.90  0.  0.
392  3.91  0.  0.
393  3.92  0.  0.
394  3.93  0.  0.
395  3.94  0.  0.
396  3.95  0.  0.
397  3.96  0.  0.
398  3.97  0.  0.
399  3.98  0.  0.
400  3.99  0.  0.
1                        -6.6001054788305E+00 -1.8299600859382E+00
1  0.0000000000000E+00  1.5143879761315E-09 -3.0091013569766E-09
2  1.0000000000000E-02  2.2606506002395E-03 -1.2564545259388E-03
3  2.0000000000000E-02  9.0297598229475E-03 -5.0120139234143E-03
4  3.0000000000000E-02  2.0268888479510E-02 -1.1225405098838E-02
5  4.0000000000000E-02  3.5914265567237E-02 -1.9828302695381E-02
6  5.0000000000000E-02  5.5877226808428E-02 -3.0726017893283E-02
7  6.0000000000000E-02  8.0044822785765E-02 -4.3798451018835E-02
8  7.0000000000000E-02  1.0828059094233E-01 -5.8901296449735E-02
9  8.0000000000000E-02  1.4042548420009E-01 -7.5867485295411E-02
10  9.0000000000000E-02  1.7629894752686E-01 -9.4508848527148E-02
11  1.0000000000000E-01  2.1570013246486E-01 -1.1461798067195E-01
12  1.1000000000000E-01  2.5840923844083E-01 -1.3597028190294E-01
13  1.2000000000000E-01  3.0418896862129E-01 -1.5832615438742E-01
14  1.3000000000000E-01  3.5278608716973E-01 -1.8143332711867E-01
15  1.4000000000000E-01  4.0393306401457E-01 -2.0502928218098E-01
16  1.5000000000000E-01  4.5734979265593E-01 -2.2884375449359E-01
17  1.6000000000000E-01  5.1274536612977E-01 -2.5260127656068E-01
18  1.7000000000000E-01  5.6981989601375E-01 -2.7602373962344E-01
19  1.8000000000000E-01  6.2826635929979E-01 -2.9883294286765E-01
20  1.9000000000000E-01  6.8777245807158E-01 -3.2075310297651E-01
21  2.0000000000000E-01  7.4802247720731E-01 -3.4151329732347E-01
22  2.1000000000000E-01  8.0869912577065E-01 -3.6084981545232E-01
23  2.2000000000000E-01  8.6948534834886E-01 -3.7850839517166E-01
24  2.3000000000000E-01  9.3006609333304E-01 -3.9424632156654E-01
25  2.4000000000000E-01  9.9013002600042E-01 -4.0783436947133E-01
26  2.5000000000000E-01  1.0493711752364E+00 -4.1905857241785E-01
27  2.6000000000000E-01  1.1074905038093E+00 -4.2772180373010E-01
28  2.7000000000000E-01  1.1641973932664E+00 -4.3364515824277E-01
29  2.8000000000000E-01  1.2192110357365E+00 -4.3666912602669E-01
30  2.9000000000000E-01  1.2722617261844E+00 -4.3665455246887E-01
31  3.0000000000000E-01  1.3230920499472E+00 -4.3348338202944E-01
32  3.1000000000000E-01  1.3714579616720E+00 -4.2705918593739E-01
33  3.2000000000000E-01  1.4171297530475E+00 -4.1730747694770E-01
34  3.3000000000000E-01  1.4598929079685E+00 -4.0417581701946E-01
35  3.4000000000000E-01  1.4995488449644E+00 -3.8763372634867E-01
36  3.5000000000000E-01  1.5359155478502E+00 -3.6767240456120E-01
37  3.6000000000000E-01  1.5688280866100E+00 -3.4430427700801E-01
38  3.7000000000000E-01  1.5981390314736E+00 -3.1756238097456E-01
39  3.8000000000000E-01  1.6237187639995E+00 -2.8749960819532E-01
40  3.9000000000000E-01  1.6454556897131E+00 -2.5418782132972E-01
41  4.0000000000000E-01  1.6632563574597E+00 -2.1771686299498E-01
42  4.1000000000000E-01  1.6770454911244E+00 -1.7819347655178E-01
43  4.2000000000000E-01  1.6867659397250E+00 -1.3574015809828E-01
44  4.3000000000000E-01  1.6923785521130E+00 -9.0493959047211E-02
45  4.4000000000000E-01  1.6938619826206E+00 -4.2605258247950E-02
46  4.5000000000000E-01  1.6912124339633E+00  7.7634781178957E-03
47  4.6000000000000E-01  1.6844433435697E+00  6.0438931672781E-02
48  4.7000000000000E-01  1.6735850192569E+00  1.1523814612947E-01
49  4.8000000000000E-01  1.6586842298180E+00  1.7196970640785E-01
50  4.9000000000000E-01  1.6398037556532E+00  2.3043487004367E-01
51  5.0000000000000E-01  1.6170219040573E+00  2.9042864031361E-01
52  5.1000000000000E-01  1.5904319932086E+00  3.5174077260754E-01
53  5.2000000000000E-01  1.5601418082823E+00  4.1415670778818E-01
54  5.3000000000000E-01  1.5262730324672E+00  4.7745842854640E-01
55  5.4000000000000E-01  1.4889606550058E+00  5.4142523704537E-01
56  5.5000000000000E-01  1.4483523577225E+00  6.0583445440245E-01
57  5.6000000000000E-01  1.4046078808757E+00  6.7046204474299E-01
58  5.7000000000000E-01  1.3578983685683E+00  7.3508316863047E-01
59  5.8000000000000E-01  1.3084056934120E+00  7.9947267259517E-01
60  5.9000000000000E-01  1.2563217596598E+00  8.6340552320911E-01
61  6.0000000000000E-01  1.2018477836225E+00  9.2665719565615E-01
62  6.1000000000000E-01  1.1451935498750E+00  9.8900402799142E-01
63  6.2000000000000E-01  1.0865766415475E+00  1.0502235532497E+00
64  6.3000000000000E-01  1.0262216428906E+00  1.1100948222262E+00
65  6.4000000000000E-01  9.6435931231175E-01  1.1683987301004E+00
66  6.5000000000000E-01  9.0122572419866E-01  1.2249183600973E+00
67  6.6000000000000E-01  8.3706137808230E-01  1.2794393570718E+00
68  6.7000000000000E-01  7.7211027403948E-01  1.3317503432708E+00
69  6.8000000000000E-01  7.0661895369209E-01  1.3816433875750E+00
70  6.9000000000000E-01  6.4083550671898E-01  1.4289145382675E+00
71  7.0000000000000E-01  5.7500854344930E-01  1.4733644278422E+00
72  7.1000000000000E-01  5.0938613484115E-01  1.5147989565644E+00
73  7.2000000000000E-01  4.4421472195458E-01  1.5530300594798E+00
74  7.3000000000000E-01  3.7973799788825E-01  1.5878765593517E+00
75  7.4000000000000E-01  3.1619576604887E-01  1.6191651056419E+00
76  7.5000000000000E-01  2.5382277954414E-01  1.6467311971791E+00
77  7.6000000000000E-01  1.9284756741498E-01  1.6704202836183E+00
78  7.7000000000000E-01  1.3349125433349E-01  1.6900889382433E+00
79  7.8000000000000E-01  7.5966381267861E-02  1.7056060921434E+00
80  7.9000000000000E-01  2.0475735438255E-02  1.7168543173568E+00
81  8.0000000000000E-01 -3.2788801364019E-02  1.7237311442641E+00
82  8.1000000000000E-01 -8.3647376362787E-02  1.7261503963856E+00
83  8.2000000000000E-01 -1.3193325100762E-01  1.7240435238276E+00
84  8.3000000000000E-01 -1.7749383710129E-01  1.7173609149807E+00
85  8.4000000000000E-01 -2.2019167284863E-01  1.7060731647325E+00
86  8.5000000000000E-01 -2.5990532769365E-01  1.6901722764565E+00
87  8.6000000000000E-01 -2.9653022483508E-01  1.6696727744044E+00
88  8.7000000000000E-01 -3.2997937050150E-01  1.6446127028814E+00
89  8.8000000000000E-01 -3.6018397943206E-01  1.6150544887494E+00
90  8.9000000000000E-01 -3.8709398654933E-01  1.5810856443814E+00
91  9.0000000000000E-01 -4.1067843552615E-01  1.5428192891918E+00
92  9.1000000000000E-01 -4.3092573583596E-01  1.5003944692900E+00
93  9.2000000000000E-01 -4.4784378092892E-01  1.4539762566324E+00
94  9.3000000000000E-01 -4.6145992138493E-01  1.4037556112703E+00
95  9.4000000000000E-01 -4.7182078824822E-01  1.3499489928774E+00
96  9.5000000000000E-01 -4.7899196323033E-01  1.2927977106665E+00
97  9.6000000000000E-01 -4.8305749406331E-01  1.2325670040305E+00
98  9.7000000000000E-01 -4.8411925497225E-01  1.1695448497206E+00
99  9.8000000000000E-01 -4.8229615399446E-01  1.1040404950694E+00
100  9.9000000000000E-01 -4.7772319067913E-01  1.0363827206101E+00
101  1.0000000000000E+00 -4.7055036953050E-01  9.6691783939416E-01
102  1.0100000000000E+00 -4.6094147638404E-01  8.9600744429761E-01
103  1.0200000000000E+00 -4.4907272670289E-01  8.2402591857765E-01
104  1.0300000000000E+00 -4.3513129652390E-01  7.5135772883301E-01
105  1.0400000000000E+00 -4.1931374844227E-01  6.7839452326634E-01
106  1.0500000000000E+00 -4.0182436657502E-01  6.0553206169046E-01
107  1.0600000000000E+00 -3.8287341586307E-01  5.3316700700217E-01
108  1.0700000000000E+00 -3.6267534233229E-01  4.6169361080284E-01
109  1.0800000000000E+00 -3.4144693201825E-01  3.9150032843659E-01
110  1.0900000000000E+00 -3.1940544714396E-01  3.2296640088047E-01
111  1.1000000000000E+00 -2.9676675880954E-01  2.5645844262562E-01
112  1.1100000000000E+00 -2.7374349589279E-01  1.9232707589238E-01
113  1.1200000000000E+00 -2.5054323005808E-01  1.3090365219707E-01
114  1.1300000000000E+00 -2.2736671671933E-01  7.2497102411023E-02
115  1.1400000000000E+00 -2.0440621149948E-01  1.7390956014023E-02
116  1.1500000000000E+00 -1.8184388116578E-01 -3.4159430773800E-02
117  1.1600000000000E+00 -1.5985032721138E-01 -8.1929399870592E-02
118  1.1700000000000E+00 -1.3858323918930E-01 -1.2572723326021E-01
119  1.1800000000000E+00 -1.1818619361451E-01 -1.6539607867222E-01
120  1.1900000000000E+00 -9.8787612725768E-02 -2.0081552891664E-01
121  1.2000000000000E+00 -8.0499895676603E-02 -2.3190282843069E-01
122  1.2100000000000E+00 -6.3418732813529E-02 -2.5861368468794E-01
123  1.2200000000000E+00 -4.7622611618520E-02 -2.8094266660734E-01
124  1.2300000000000E+00 -3.3172520690840E-02 -2.9892317687551E-01
125  1.2400000000000E+00 -2.0111855807115E-02 -3.1262699018615E-01
126  1.2500000000000E+00 -8.4665297045858E-03 -3.2216335463893E-01
127  1.2600000000000E+00  1.7547152207292E-03 -3.2767765892607E-01
128  1.2700000000000E+00  1.0559794584164E-02 -3.2934967338511E-01
129  1.2800000000000E+00  1.7972575777837E-02 -3.2739137839243E-01
130  1.2900000000000E+00  2.4031985887314E-02 -3.2204439864983E-01
131  1.3000000000000E+00  2.8790945807097E-02 -3.1357707242674E-01
132  1.3100000000000E+00  3.2315136849978E-02 -3.0228116411504E-01
133  1.3200000000000E+00  3.4681885329154E-02 -2.8846912228935E-01
134  1.3300000000000E+00  3.5979373669219E-02 -2.7247249450120E-01
135  1.3400000000000E+00  3.6305346037938E-02 -2.5463878743102E-01
136  1.3500000000000E+00  3.5765490026060E-02 -2.3532739029404E-01
137  1.3600000000000E+00  3.4471750407871E-02 -2.1490537846143E-01
138  1.3700000000000E+00  3.2540590247615E-02 -1.9374322497588E-01
139  1.3800000000000E+00  3.0091223104845E-02 -1.7221047464473E-01
140  1.3900000000000E+00  2.7243839112183E-02 -1.5067143180937E-01
141  1.4000000000000E+00  2.4117847805048E-02 -1.2948091316194E-01
142  1.4100000000000E+00  2.0830160154520E-02 -1.0898011606451E-01
143  1.4200000000000E+00  1.7493535932070E-02 -8.9492660797257E-02
144  1.4300000000000E+00  1.4215008878682E-02 -7.1320833667971E-02
145  1.4400000000000E+00  1.1096755710219E-02 -5.4747104626595E-02
146  1.4500000000000E+00  8.2321897613777E-03 -4.0025524993404E-02
147  1.4600000000000E+00  5.7006076184881E-03 -2.7369948142468E-02
148  1.4700000000000E+00  3.5709929440143E-03 -1.6961873377279E-02
149  1.4800000000000E+00  1.9010305517480E-03 -8.9484265147520E-03
150  1.4900000000000E+00  7.3440676568212E-04 -3.4313874669931E-03
151  1.5000000000000E+00  1.1627261424081E-04 -5.3991884540613E-04
152  1.5100000000000E+00 -1.1236863531621E-05  5.1986987999317E-05
153  1.5200000000000E+00  3.3279583499854E-06 -1.5420755814021E-05
154  1.53 -0.  0.
155  1.54 -0.  0.
156  1.55  0.  0.
157  1.56  0.  0.
158  1.57  0.  0.
159  1.58  0.  0.
160  1.59  0.  0.
161  1.60  0.  0.
162  1.61  0.  0.
163  1.62  0.  0.
164  1.63  0.  0.
165  1.64  0.  0.
166  1.65  0.  0.
167  1.66  0.  0.
168  1.67  0.  0.
169  1.68  0.  0.
170  1.69  0.  0.
171  1.70  0.  0.
172  1.71  0.  0.
173  1.72  0.  0.
174  1.73  0.  0.
175  1.74  0.  0.
176  1.75  0.  0.
177  1.76  0.  0.
178  1.77  0.  0.
179  1.78  0.  0.
180  1.79  0.  0.
181  1.80  0.  0.
182  1.81  0.  0.
183  1.82  0.  0.
184  1.83  0.  0.
185  1.84  0.  0.
186  1.85  0.  0.
187  1.86  0.  0.
188  1.87  0.  0.
189  1.88  0.  0.
190  1.89  0.  0.
191  1.90  0.  0.
192  1.91  0.  0.
193  1.92  0.  0.
194  1.93  0.  0.
195  1.94  0.  0.
196  1.95  0.  0.
197  1.96  0.  0.
198  1.97  0.  0.
199  1.98  0.  0.
200  1.99  0.  0.
201  2.00  0.  0.
202  2.01  0.  0.
203  2.02  0.  0.
204  2.03  0.  0.
205  2.04  0.  0.
206  2.05  0.  0.
207  2.06  0.  0.
208  2.07  0.  0.
209  2.08  0.  0.
210  2.09  0.  0.
211  2.10  0.  0.
212  2.11  0.  0.
213  2.12  0.  0.
214  2.13  0.  0.
215  2.14  0.  0.
216  2.15  0.  0.
217  2.16  0.  0.
218  2.17  0.  0.
219  2.18  0.  0.
220  2.19  0.  0.
221  2.20  0.  0.
222  2.21  0.  0.
223  2.22  0.  0.
224  2.23  0.  0.
225  2.24  0.  0.
226  2.25  0.  0.
227  2.26  0.  0.
228  2.27  0.  0.
229  2.28  0.  0.
230  2.29  0.  0.
231  2.30  0.  0.
232  2.31  0.  0.
233  2.32  0.  0.
234  2.33  0.  0.
235  2.34  0.  0.
236  2.35  0.  0.
237  2.36  0.  0.
238  2.37  0.  0.
239  2.38  0.  0.
240  2.39  0.  0.
241  2.40  0.  0.
242  2.41  0.  0.
243  2.42  0.  0.
244  2.43  0.  0.
245  2.44  0.  0.
246  2.45  0.  0.
247  2.46  0.  0.
248  2.47  0.  0.
249  2.48  0.  0.
250  2.49  0.  0.
251  2.50  0.  0.
252  2.51  0.  0.
253  2.52  0.  0.
254  2.53  0.  0.
255  2.54  0.  0.
256  2.55  0.  0.
257  2.56  0.  0.
258  2.57  0.  0.
259  2.58  0.  0.
260  2.59  0.  0.
261  2.60  0.  0.
262  2.61  0.  0.
263  2.62  0.  0.
264  2.63  0.  0.
265  2.64  0.  0.
266  2.65  0.  0.
267  2.66  0.  0.
268  2.67  0.  0.
269  2.68  0.  0.
270  2.69  0.  0.
271  2.70  0.  0.
272  2.71  0.  0.
273  2.72  0.  0.
274  2.73  0.  0.
275  2.74  0.  0.
276  2.75  0.  0.
277  2.76  0.  0.
278  2.77  0.  0.
279  2.78  0.  0.
280  2.79  0.  0.
281  2.80  0.  0.
282  2.81  0.  0.
283  2.82  0.  0.
284  2.83  0.  0.
285  2.84  0.  0.
286  2.85  0.  0.
287  2.86  0.  0.
288  2.87  0.  0.
289  2.88  0.  0.
290  2.89  0.  0.
291  2.90  0.  0.
292  2.91  0.  0.
293  2.92  0.  0.
294  2.93  0.  0.
295  2.94  0.  0.
296  2.95  0.  0.
297  2.96  0.  0.
298  2.97  0.  0.
299  2.98  0.  0.
300  2.99  0.  0.
301  3.00  0.  0.
302  3.01  0.  0.
303  3.02  0.  0.
304  3.03  0.  0.
305  3.04  0.  0.
306  3.05  0.  0.
307  3.06  0.  0.
308  3.07  0.  0.
309  3.08  0.  0.
310  3.09  0.  0.
311  3.10  0.  0.
312  3.11  0.  0.
313  3.12  0.  0.
314  3.13  0.  0.
315  3.14  0.  0.
316  3.15  0.  0.
317  3.16  0.  0.
318  3.17  0.  0.
319  3.18  0.  0.
320  3.19  0.  0.
321  3.20  0.  0.
322  3.21  0.  0.
323  3.22  0.  0.
324  3.23  0.  0.
325  3.24  0.  0.
326  3.25  0.  0.
327  3.26  0.  0.
328  3.27  0.  0.
329  3.28  0.  0.
330  3.29  0.  0.
331  3.30  0.  0.
332  3.31  0.  0.
333  3.32  0.  0.
334  3.33  0.  0.
335  3.34  0.  0.
336  3.35  0.  0.
337  3.36  0.  0.
338  3.37  0.  0.
339  3.38  0.  0.
340  3.39  0.  0.
341  3.40  0.  0.
342  3.41  0.  0.
343  3.42  0.  0.
344  3.43  0.  0.
345  3.44  0.  0.
346  3.45  0.  0.
347  3.46  0.  0.
348  3.47  0.  0.
349  3.48  0.  0.
350  3.49  0.  0.
351  3.50  0.  0.
352  3.51  0.  0.
353  3.52  0.  0.
354  3.53  0.  0.
355  3.54  0.  0.
356  3.55  0.  0.
357  3.56  0.  0.
358  3.57  0.  0.
359  3.58  0.  0.
360  3.59  0.  0.
361  3.60  0.  0.
362  3.61  0.  0.
363  3.62  0.  0.
364  3.63  0.  0.
365  3.64  0.  0.
366  3.65  0.  0.
367  3.66  0.  0.
368  3.67  0.  0.
369  3.68  0.  0.
370  3.69  0.  0.
371  3.70  0.  0.
372  3.71  0.  0.
373  3.72  0.  0.
374  3.73  0.  0.
375  3.74  0.  0.
376  3.75  0.  0.
377  3.76  0.  0.
378  3.77  0.  0.
379  3.78  0.  0.
380  3.79  0.  0.
381  3.80  0.  0.
382  3.81  0.  0.
383  3.82  0.  0.
384  3.83  0.  0.
385  3.84  0.  0.
386  3.85  0.  0.
387  3.86  0.  0.
388  3.87  0.  0.
389  3.88  0.  0.
390  3.89  0.  0.
391  3.90  0.  0.
392  3.91  0.  0.
393  3.92  0.  0.
394  3.93  0.  0.
395  3.94  0.  0.
396  3.95  0.  0.
397  3.96  0.  0.
398  3.97  0.  0.
399  3.98  0.  0.
400  3.99  0.  0.
4
1  0.0000000000000E+00 -1.3078026036498E+01
2  1.0000000000000E-02 -1.3077498066114E+01
3  2.0000000000000E-02 -1.3075920432234E+01
4  3.0000000000000E-02 -1.3073312987934E+01
5  4.0000000000000E-02 -1.3069707065082E+01
6  5.0000000000000E-02 -1.3065143502824E+01
7  6.0000000000000E-02 -1.3059669949381E+01
8  7.0000000000000E-02 -1.3053337810154E+01
9  8.0000000000000E-02 -1.3046199078305E+01
10  9.0000000000000E-02 -1.3038303268867E+01
11  1.0000000000000E-01 -1.3029694641793E+01
12  1.1000000000000E-01 -1.3020409850461E+01
13  1.2000000000000E-01 -1.3010476098754E+01
14  1.3000000000000E-01 -1.2999909838413E+01
15  1.4000000000000E-01 -1.2988715995080E+01
16  1.5000000000000E-01 -1.2976887678554E+01
17  1.6000000000000E-01 -1.2964406311730E+01
18  1.7000000000000E-01 -1.2951242102405E+01
19  1.8000000000000E-01 -1.2937354780740E+01
20  1.9000000000000E-01 -1.2922694530428E+01
21  2.0000000000000E-01 -1.2907203051154E+01
22  2.1000000000000E-01 -1.2890814701473E+01
23  2.2000000000000E-01 -1.2873457682902E+01
24  2.3000000000000E-01 -1.2855055237993E+01
25  2.4000000000000E-01 -1.2835526844228E+01
26  2.5000000000000E-01 -1.2814789393856E+01
27  2.6000000000000E-01 -1.2792758355742E+01
28  2.7000000000000E-01 -1.2769348918888E+01
29  2.8000000000000E-01 -1.2744477119260E+01
30  2.9000000000000E-01 -1.2718060951477E+01