<UPF version="2.0.1">
<PP_INFO>

This pseudopotential file has been produced using the code
ONCVPSP  (Optimized Norm-Conservinng Vanderbilt PSeudopotential)
scalar-relativistic version 4.0.1 06/20/2107 by D. R. Hamann
The code is available through a link at URL www.mat-simresearch.com.
Documentation with the package provides a full discription of the
input data below.


While it is not required under the terms of the GNU GPL, it is
suggested that you cite D. R. Hamann, Phys. Rev. B 88, 085117 (2013)
in any publication using these pseudopotentials.

<PP_INPUTFILE>
# ATOM AND REFERENCE CONFIGURATION
# atsym  z   nc   nv     iexc    psfile
Ne 10.00    1    2       4      both
#
#   n    l    f        energy (Ha)
1    0    2.00
2    0    2.00
2    1    6.00
#
# PSEUDOPOTENTIAL AND OPTIMIZATION
# lmax
1
#
#   l,   rc,      ep,       ncon, nbas, qcut
0   1.30000   0.00000    4    7   9.00000
1   1.50000   0.00000    4    7   9.40000
#
# LOCAL POTENTIAL
# lloc, lpopt,  rc(5),   dvloc0
4    5   1.30000      0.00000
#
# VANDERBILT-KLEINMAN-BYLANDER PROJECTORs
# l, nproj, debl
0    2   1.50000
1    2   1.50000
#
# MODEL CORE CHARGE
# icmod, fcfact, rcfact
3   2.50000   1.85000
#
# LOG DERIVATIVE ANALYSIS
# epsh1, epsh2, depsh
-12.00   12.00    0.02
#
# OUTPUT GRID
# rlmax, drl
4.00    0.01
#
# TEST CONFIGURATIONS
# ncnf
0
# nvcnf
#   n    l    f
</PP_INPUTFILE>
</PP_INFO>
<!--                               -->
<!-- END OF HUMAN READABLE SECTION -->
<!--                               -->
<PP_HEADER
generated="Generated using ONCVPSP code by D. R. Hamann"
author="anonymous"
date="220429"
comment=""
element="Ne"
pseudo_type="NC"
relativistic="scalar"
is_ultrasoft="F"
is_paw="F"
is_coulomb="F"
has_so="F"
has_wfc="F"
has_gipaw="F"
core_correction="T"
functional="PBE"
z_valence="    8.00"
total_psenergy="  -6.82472148931E+01"
rho_cutoff="   7.53000000000E+00"
l_max="1"
l_local="-1"
mesh_size="   754"
number_of_wfc="2"
number_of_proj="4"/>
<PP_MESH>
<PP_R type="real"  size=" 754" columns="8">
0.0000    0.0100    0.0200    0.0300    0.0400    0.0500    0.0600    0.0700
0.0800    0.0900    0.1000    0.1100    0.1200    0.1300    0.1400    0.1500
0.1600    0.1700    0.1800    0.1900    0.2000    0.2100    0.2200    0.2300
0.2400    0.2500    0.2600    0.2700    0.2800    0.2900    0.3000    0.3100
0.3200    0.3300    0.3400    0.3500    0.3600    0.3700    0.3800    0.3900
0.4000    0.4100    0.4200    0.4300    0.4400    0.4500    0.4600    0.4700
0.4800    0.4900    0.5000    0.5100    0.5200    0.5300    0.5400    0.5500
0.5600    0.5700    0.5800    0.5900    0.6000    0.6100    0.6200    0.6300
0.6400    0.6500    0.6600    0.6700    0.6800    0.6900    0.7000    0.7100
0.7200    0.7300    0.7400    0.7500    0.7600    0.7700    0.7800    0.7900
0.8000    0.8100    0.8200    0.8300    0.8400    0.8500    0.8600    0.8700
0.8800    0.8900    0.9000    0.9100    0.9200    0.9300    0.9400    0.9500
0.9600    0.9700    0.9800    0.9900    1.0000    1.0100    1.0200    1.0300
1.0400    1.0500    1.0600    1.0700    1.0800    1.0900    1.1000    1.1100
1.1200    1.1300    1.1400    1.1500    1.1600    1.1700    1.1800    1.1900
1.2000    1.2100    1.2200    1.2300    1.2400    1.2500    1.2600    1.2700
1.2800    1.2900    1.3000    1.3100    1.3200    1.3300    1.3400    1.3500
1.3600    1.3700    1.3800    1.3900    1.4000    1.4100    1.4200    1.4300
1.4400    1.4500    1.4600    1.4700    1.4800    1.4900    1.5000    1.5100
1.5200    1.5300    1.5400    1.5500    1.5600    1.5700    1.5800    1.5900
1.6000    1.6100    1.6200    1.6300    1.6400    1.6500    1.6600    1.6700
1.6800    1.6900    1.7000    1.7100    1.7200    1.7300    1.7400    1.7500
1.7600    1.7700    1.7800    1.7900    1.8000    1.8100    1.8200    1.8300
1.8400    1.8500    1.8600    1.8700    1.8800    1.8900    1.9000    1.9100
1.9200    1.9300    1.9400    1.9500    1.9600    1.9700    1.9800    1.9900
2.0000    2.0100    2.0200    2.0300    2.0400    2.0500    2.0600    2.0700
2.0800    2.0900    2.1000    2.1100    2.1200    2.1300    2.1400    2.1500
2.1600    2.1700    2.1800    2.1900    2.2000    2.2100    2.2200    2.2300
2.2400    2.2500    2.2600    2.2700    2.2800    2.2900    2.3000    2.3100
2.3200    2.3300    2.3400    2.3500    2.3600    2.3700    2.3800    2.3900
2.4000    2.4100    2.4200    2.4300    2.4400    2.4500    2.4600    2.4700
2.4800    2.4900    2.5000    2.5100    2.5200    2.5300    2.5400    2.5500
2.5600    2.5700    2.5800    2.5900    2.6000    2.6100    2.6200    2.6300
2.6400    2.6500    2.6600    2.6700    2.6800    2.6900    2.7000    2.7100
2.7200    2.7300    2.7400    2.7500    2.7600    2.7700    2.7800    2.7900
2.8000    2.8100    2.8200    2.8300    2.8400    2.8500    2.8600    2.8700
2.8800    2.8900    2.9000    2.9100    2.9200    2.9300    2.9400    2.9500
2.9600    2.9700    2.9800    2.9900    3.0000    3.0100    3.0200    3.0300
3.0400    3.0500    3.0600    3.0700    3.0800    3.0900    3.1000    3.1100
3.1200    3.1300    3.1400    3.1500    3.1600    3.1700    3.1800    3.1900
3.2000    3.2100    3.2200    3.2300    3.2400    3.2500    3.2600    3.2700
3.2800    3.2900    3.3000    3.3100    3.3200    3.3300    3.3400    3.3500
3.3600    3.3700    3.3800    3.3900    3.4000    3.4100    3.4200    3.4300
3.4400    3.4500    3.4600    3.4700    3.4800    3.4900    3.5000    3.5100
3.5200    3.5300    3.5400    3.5500    3.5600    3.5700    3.5800    3.5900
3.6000    3.6100    3.6200    3.6300    3.6400    3.6500    3.6600    3.6700
3.6800    3.6900    3.7000    3.7100    3.7200    3.7300    3.7400    3.7500
3.7600    3.7700    3.7800    3.7900    3.8000    3.8100    3.8200    3.8300
3.8400    3.8500    3.8600    3.8700    3.8800    3.8900    3.9000    3.9100
3.9200    3.9300    3.9400    3.9500    3.9600    3.9700    3.9800    3.9900
4.0000    4.0100    4.0200    4.0300    4.0400    4.0500    4.0600    4.0700
4.0800    4.0900    4.1000    4.1100    4.1200    4.1300    4.1400    4.1500
4.1600    4.1700    4.1800    4.1900    4.2000    4.2100    4.2200    4.2300
4.2400    4.2500    4.2600    4.2700    4.2800    4.2900    4.3000    4.3100
4.3200    4.3300    4.3400    4.3500    4.3600    4.3700    4.3800    4.3900
4.4000    4.4100    4.4200    4.4300    4.4400    4.4500    4.4600    4.4700
4.4800    4.4900    4.5000    4.5100    4.5200    4.5300    4.5400    4.5500
4.5600    4.5700    4.5800    4.5900    4.6000    4.6100    4.6200    4.6300
4.6400    4.6500    4.6600    4.6700    4.6800    4.6900    4.7000    4.7100
4.7200    4.7300    4.7400    4.7500    4.7600    4.7700    4.7800    4.7900
4.8000    4.8100    4.8200    4.8300    4.8400    4.8500    4.8600    4.8700
4.8800    4.8900    4.9000    4.9100    4.9200    4.9300    4.9400    4.9500
4.9600    4.9700    4.9800    4.9900    5.0000    5.0100    5.0200    5.0300
5.0400    5.0500    5.0600    5.0700    5.0800    5.0900    5.1000    5.1100
5.1200    5.1300    5.1400    5.1500    5.1600    5.1700    5.1800    5.1900
5.2000    5.2100    5.2200    5.2300    5.2400    5.2500    5.2600    5.2700
5.2800    5.2900    5.3000    5.3100    5.3200    5.3300    5.3400    5.3500
5.3600    5.3700    5.3800    5.3900    5.4000    5.4100    5.4200    5.4300
5.4400    5.4500    5.4600    5.4700    5.4800    5.4900    5.5000    5.5100
5.5200    5.5300    5.5400    5.5500    5.5600    5.5700    5.5800    5.5900
5.6000    5.6100    5.6200    5.6300    5.6400    5.6500    5.6600    5.6700
5.6800    5.6900    5.7000    5.7100    5.7200    5.7300    5.7400    5.7500
5.7600    5.7700    5.7800    5.7900    5.8000    5.8100    5.8200    5.8300
5.8400    5.8500    5.8600    5.8700    5.8800    5.8900    5.9000    5.9100
5.9200    5.9300    5.9400    5.9500    5.9600    5.9700    5.9800    5.9900
6.0000    6.0100    6.0200    6.0300    6.0400    6.0500    6.0600    6.0700
6.0800    6.0900    6.1000    6.1100    6.1200    6.1300    6.1400    6.1500
6.1600    6.1700    6.1800    6.1900    6.2000    6.2100    6.2200    6.2300
6.2400    6.2500    6.2600    6.2700    6.2800    6.2900    6.3000    6.3100
6.3200    6.3300    6.3400    6.3500    6.3600    6.3700    6.3800    6.3900
6.4000    6.4100    6.4200    6.4300    6.4400    6.4500    6.4600    6.4700
6.4800    6.4900    6.5000    6.5100    6.5200    6.5300    6.5400    6.5500
6.5600    6.5700    6.5800    6.5900    6.6000    6.6100    6.6200    6.6300
6.6400    6.6500    6.6600    6.6700    6.6800    6.6900    6.7000    6.7100
6.7200    6.7300    6.7400    6.7500    6.7600    6.7700    6.7800    6.7900
6.8000    6.8100    6.8200    6.8300    6.8400    6.8500    6.8600    6.8700
6.8800    6.8900    6.9000    6.9100    6.9200    6.9300    6.9400    6.9500
6.9600    6.9700    6.9800    6.9900    7.0000    7.0100    7.0200    7.0300
7.0400    7.0500    7.0600    7.0700    7.0800    7.0900    7.1000    7.1100
7.1200    7.1300    7.1400    7.1500    7.1600    7.1700    7.1800    7.1900
7.2000    7.2100    7.2200    7.2300    7.2400    7.2500    7.2600    7.2700
7.2800    7.2900    7.3000    7.3100    7.3200    7.3300    7.3400    7.3500
7.3600    7.3700    7.3800    7.3900    7.4000    7.4100    7.4200    7.4300
7.4400    7.4500    7.4600    7.4700    7.4800    7.4900    7.5000    7.5100
7.5200    7.5300
</PP_R>
<PP_RAB type="real"  size=" 754" columns="8">
0.0100    0.0100    0.0100    0.0100    0.0100    0.0100    0.0100    0.0100
0.0100    0.0100    0.0100    0.0100    0.0100    0.0100    0.0100    0.0100
0.0100    0.0100    0.0100    0.0100    0.0100    0.0100    0.0100    0.0100
0.0100    0.0100    0.0100    0.0100    0.0100    0.0100    0.0100    0.0100
0.0100    0.0100    0.0100    0.0100    0.0100    0.0100    0.0100    0.0100
0.0100    0.0100    0.0100    0.0100    0.0100    0.0100    0.0100    0.0100
0.0100    0.0100    0.0100    0.0100    0.0100    0.0100    0.0100    0.0100
0.0100    0.0100    0.0100    0.0100    0.0100    0.0100    0.0100    0.0100
0.0100    0.0100    0.0100    0.0100    0.0100    0.0100    0.0100    0.0100
0.0100    0.0100    0.0100    0.0100    0.0100    0.0100    0.0100    0.0100
0.0100    0.0100    0.0100    0.0100    0.0100    0.0100    0.0100    0.0100
0.0100    0.0100    0.0100    0.0100    0.0100    0.0100    0.0100    0.0100
0.0100    0.0100    0.0100    0.0100    0.0100    0.0100    0.0100    0.0100
0.0100    0.0100    0.0100    0.0100    0.0100    0.0100    0.0100    0.0100
0.0100    0.0100    0.0100    0.0100    0.0100    0.0100    0.0100    0.0100
0.0100    0.0100    0.0100    0.0100    0.0100    0.0100    0.0100    0.0100
0.0100    0.0100    0.0100    0.0100    0.0100    0.0100    0.0100    0.0100
0.0100    0.0100    0.0100    0.0100    0.0100    0.0100    0.0100    0.0100
0.0100    0.0100    0.0100    0.0100    0.0100    0.0100    0.0100    0.0100
0.0100    0.0100    0.0100    0.0100    0.0100    0.0100    0.0100    0.0100
0.0100    0.0100    0.0100    0.0100    0.0100    0.0100    0.0100    0.0100
0.0100    0.0100    0.0100    0.0100    0.0100    0.0100    0.0100    0.0100
0.0100    0.0100    0.0100    0.0100    0.0100    0.0100    0.0100    0.0100
0.0100    0.0100    0.0100    0.0100    0.0100    0.0100    0.0100    0.0100
0.0100    0.0100    0.0100    0.0100    0.0100    0.0100    0.0100    0.0100
0.0100    0.0100    0.0100    0.0100    0.0100    0.0100    0.0100    0.0100
0.0100    0.0100    0.0100    0.0100    0.0100    0.0100    0.0100    0.0100
0.0100    0.0100    0.0100    0.0100    0.0100    0.0100    0.0100    0.0100
0.0100    0.0100    0.0100    0.0100    0.0100    0.0100    0.0100    0.0100
0.0100    0.0100    0.0100    0.0100    0.0100    0.0100    0.0100    0.0100
0.0100    0.0100    0.0100    0.0100    0.0100    0.0100    0.0100    0.0100
0.0100    0.0100    0.0100    0.0100    0.0100    0.0100    0.0100    0.0100
0.0100    0.0100    0.0100    0.0100    0.0100    0.0100    0.0100    0.0100
0.0100    0.0100    0.0100    0.0100    0.0100    0.0100    0.0100    0.0100
0.0100    0.0100    0.0100    0.0100    0.0100    0.0100    0.0100    0.0100
0.0100    0.0100    0.0100    0.0100    0.0100    0.0100    0.0100    0.0100
0.0100    0.0100    0.0100    0.0100    0.0100    0.0100    0.0100    0.0100
0.0100    0.0100    0.0100    0.0100    0.0100    0.0100    0.0100    0.0100
0.0100    0.0100    0.0100    0.0100    0.0100    0.0100    0.0100    0.0100
0.0100    0.0100    0.0100    0.0100    0.0100    0.0100    0.0100    0.0100
0.0100    0.0100    0.0100    0.0100    0.0100    0.0100    0.0100    0.0100
0.0100    0.0100    0.0100    0.0100    0.0100    0.0100    0.0100    0.0100
0.0100    0.0100    0.0100    0.0100    0.0100    0.0100    0.0100    0.0100
0.0100    0.0100    0.0100    0.0100    0.0100    0.0100    0.0100    0.0100
0.0100    0.0100    0.0100    0.0100    0.0100    0.0100    0.0100    0.0100
0.0100    0.0100    0.0100    0.0100    0.0100    0.0100    0.0100    0.0100
0.0100    0.0100    0.0100    0.0100    0.0100    0.0100    0.0100    0.0100
0.0100    0.0100    0.0100    0.0100    0.0100    0.0100    0.0100    0.0100
0.0100    0.0100    0.0100    0.0100    0.0100    0.0100    0.0100    0.0100
0.0100    0.0100    0.0100    0.0100    0.0100    0.0100    0.0100    0.0100
0.0100    0.0100    0.0100    0.0100    0.0100    0.0100    0.0100    0.0100
0.0100    0.0100    0.0100    0.0100    0.0100    0.0100    0.0100    0.0100
0.0100    0.0100    0.0100    0.0100    0.0100    0.0100    0.0100    0.0100
0.0100    0.0100    0.0100    0.0100    0.0100    0.0100    0.0100    0.0100
0.0100    0.0100    0.0100    0.0100    0.0100    0.0100    0.0100    0.0100
0.0100    0.0100    0.0100    0.0100    0.0100    0.0100    0.0100    0.0100
0.0100    0.0100    0.0100    0.0100    0.0100    0.0100    0.0100    0.0100
0.0100    0.0100    0.0100    0.0100    0.0100    0.0100    0.0100    0.0100
0.0100    0.0100    0.0100    0.0100    0.0100    0.0100    0.0100    0.0100
0.0100    0.0100    0.0100    0.0100    0.0100    0.0100    0.0100    0.0100
0.0100    0.0100    0.0100    0.0100    0.0100    0.0100    0.0100    0.0100
0.0100    0.0100    0.0100    0.0100    0.0100    0.0100    0.0100    0.0100
0.0100    0.0100    0.0100    0.0100    0.0100    0.0100    0.0100    0.0100
0.0100    0.0100    0.0100    0.0100    0.0100    0.0100    0.0100    0.0100
0.0100    0.0100    0.0100    0.0100    0.0100    0.0100    0.0100    0.0100
0.0100    0.0100    0.0100    0.0100    0.0100    0.0100    0.0100    0.0100
0.0100    0.0100    0.0100    0.0100    0.0100    0.0100    0.0100    0.0100
0.0100    0.0100    0.0100    0.0100    0.0100    0.0100    0.0100    0.0100
0.0100    0.0100    0.0100    0.0100    0.0100    0.0100    0.0100    0.0100
0.0100    0.0100    0.0100    0.0100    0.0100    0.0100    0.0100    0.0100
0.0100    0.0100    0.0100    0.0100    0.0100    0.0100    0.0100    0.0100
0.0100    0.0100    0.0100    0.0100    0.0100    0.0100    0.0100    0.0100
0.0100    0.0100    0.0100    0.0100    0.0100    0.0100    0.0100    0.0100
0.0100    0.0100    0.0100    0.0100    0.0100    0.0100    0.0100    0.0100
0.0100    0.0100    0.0100    0.0100    0.0100    0.0100    0.0100    0.0100
0.0100    0.0100    0.0100    0.0100    0.0100    0.0100    0.0100    0.0100
0.0100    0.0100    0.0100    0.0100    0.0100    0.0100    0.0100    0.0100
0.0100    0.0100    0.0100    0.0100    0.0100    0.0100    0.0100    0.0100
0.0100    0.0100    0.0100    0.0100    0.0100    0.0100    0.0100    0.0100
0.0100    0.0100    0.0100    0.0100    0.0100    0.0100    0.0100    0.0100
0.0100    0.0100    0.0100    0.0100    0.0100    0.0100    0.0100    0.0100
0.0100    0.0100    0.0100    0.0100    0.0100    0.0100    0.0100    0.0100
0.0100    0.0100    0.0100    0.0100    0.0100    0.0100    0.0100    0.0100
0.0100    0.0100    0.0100    0.0100    0.0100    0.0100    0.0100    0.0100
0.0100    0.0100    0.0100    0.0100    0.0100    0.0100    0.0100    0.0100
0.0100    0.0100    0.0100    0.0100    0.0100    0.0100    0.0100    0.0100
0.0100    0.0100    0.0100    0.0100    0.0100    0.0100    0.0100    0.0100
0.0100    0.0100    0.0100    0.0100    0.0100    0.0100    0.0100    0.0100
0.0100    0.0100    0.0100    0.0100    0.0100    0.0100    0.0100    0.0100
0.0100    0.0100    0.0100    0.0100    0.0100    0.0100    0.0100    0.0100
0.0100    0.0100    0.0100    0.0100    0.0100    0.0100    0.0100    0.0100
0.0100    0.0100    0.0100    0.0100    0.0100    0.0100    0.0100    0.0100
0.0100    0.0100    0.0100    0.0100    0.0100    0.0100    0.0100    0.0100
0.0100    0.0100    0.0100    0.0100    0.0100    0.0100    0.0100    0.0100
0.0100    0.0100
</PP_RAB>
</PP_MESH>
<PP_LOCAL type="real"  size=" 754" columns="4">
-2.6156052073E+01   -2.6154996132E+01   -2.6151840864E+01   -2.6146625976E+01
-2.6139414130E+01   -2.6130287006E+01   -2.6119339899E+01   -2.6106675620E+01
-2.6092398157E+01   -2.6076606538E+01   -2.6059389284E+01   -2.6040819701E+01
-2.6020952198E+01   -2.5999819677E+01   -2.5977431990E+01   -2.5953775357E+01
-2.5928812623E+01   -2.5902484205E+01   -2.5874709561E+01   -2.5845389061E+01
-2.5814406102E+01   -2.5781629403E+01   -2.5746915366E+01   -2.5710110476E+01
-2.5671053688E+01   -2.5629578788E+01   -2.5585516711E+01   -2.5538697838E+01
-2.5488954239E+01   -2.5436121903E+01   -2.5380042931E+01   -2.5320567687E+01
-2.5257556905E+01   -2.5190883705E+01   -2.5120435500E+01   -2.5046115721E+01
-2.4967845328E+01   -2.4885564019E+01   -2.4799231101E+01   -2.4708825950E+01
-2.4614348050E+01   -2.4515816580E+01   -2.4413269586E+01   -2.4306762779E+01
-2.4196368029E+01   -2.4082171672E+01   -2.3964272716E+01   -2.3842781071E+01
-2.3717815901E+01   -2.3589504160E+01   -2.3457979385E+01   -2.3323380751E+01
-2.3185852384E+01   -2.3045542891E+01   -2.2902605064E+01   -2.2757195662E+01
-2.2609475236E+01   -2.2459607883E+01   -2.2307760907E+01   -2.2154104316E+01
-2.1998810142E+01   -2.1842051575E+01   -2.1684001926E+01   -2.1524833450E+01
-2.1364716083E+01   -2.1203816135E+01   -2.1042295012E+01   -2.0880308008E+01
-2.0718003230E+01   -2.0555520679E+01   -2.0392991538E+01   -2.0230537652E+01
-2.0068271226E+01   -1.9906294726E+01   -1.9744700963E+01   -1.9583573343E+01
-1.9422986263E+01   -1.9263005612E+01   -1.9103689369E+01   -1.8945088260E+01
-1.8787246455E+01   -1.8630202290E+01   -1.8473988991E+01   -1.8318635389E+01
-1.8164166611E+01   -1.8010604737E+01   -1.7857969428E+01   -1.7706278490E+01
-1.7555548405E+01   -1.7405794791E+01   -1.7257032820E+01   -1.7109277562E+01
-1.6962544284E+01   -1.6816848678E+01   -1.6672207040E+01   -1.6528636389E+01
-1.6386154539E+01   -1.6244780113E+01   -1.6104532528E+01   -1.5965431924E+01
-1.5827499075E+01   -1.5690755264E+01   -1.5555222134E+01   -1.5420921525E+01
-1.5287875305E+01   -1.5156105179E+01   -1.5025632514E+01   -1.4896478153E+01
-1.4768662241E+01   -1.4642204057E+01   -1.4517121859E+01   -1.4393432743E+01
-1.4271152513E+01   -1.4150295570E+01   -1.4030874813E+01   -1.3912901562E+01
-1.3796385484E+01   -1.3681334551E+01   -1.3567754988E+01   -1.3455651255E+01
-1.3345026020E+01   -1.3235880151E+01   -1.3128212701E+01   -1.3022020910E+01
-1.2917300192E+01   -1.2814044097E+01   -1.2712244346E+01   -1.2611890856E+01
-1.2512971610E+01   -1.2415472657E+01   -1.2319377959E+01   -1.2224671825E+01
-1.2131344427E+01   -1.2039378838E+01   -1.1948756171E+01   -1.1859458415E+01
-1.1771467993E+01   -1.1684767605E+01   -1.1599340065E+01   -1.1515168143E+01
-1.1432234395E+01   -1.1350521018E+01   -1.1270009701E+01   -1.1190681497E+01
-1.1112516695E+01   -1.1035494749E+01   -1.0959594270E+01   -1.0884792930E+01
-1.0811067445E+01   -1.0738393609E+01   -1.0666746651E+01   -1.0596094723E+01
-1.0526386578E+01   -1.0457586788E+01   -1.0389681374E+01   -1.0322651964E+01
-1.0256481748E+01   -1.0191154218E+01   -1.0126653319E+01   -1.0062963427E+01
-1.0000069332E+01   -9.9379562276E+00   -9.8766096872E+00   -9.8160156600E+00
-9.7561604824E+00   -9.6970303083E+00   -9.6386123105E+00   -9.5808953401E+00
-9.5238654058E+00   -9.4675104032E+00   -9.4118184133E+00   -9.3567778030E+00
-9.3023772110E+00   -9.2486055386E+00   -9.1954519419E+00   -9.1429058251E+00
-9.0909568332E+00   -9.0395948451E+00   -8.9888099673E+00   -8.9385925272E+00
-8.8889330675E+00   -8.8398223396E+00   -8.7912512982E+00   -8.7432110960E+00
-8.6956930777E+00   -8.6486887753E+00   -8.6021899029E+00   -8.5561883520E+00
-8.5106761864E+00   -8.4656456379E+00   -8.4210891020E+00   -8.3769991333E+00
-8.3333684417E+00   -8.2901898881E+00   -8.2474564804E+00   -8.2051613703E+00
-8.1632978491E+00   -8.1218593443E+00   -8.0808394161E+00   -8.0402317544E+00
-8.0000301751E+00   -7.9602286172E+00   -7.9208211397E+00   -7.8818019188E+00
-7.8431652450E+00   -7.8049055190E+00   -7.7670172530E+00   -7.7294950633E+00
-7.6923336674E+00   -7.6555278890E+00   -7.6190726471E+00   -7.5829629577E+00
-7.5471939309E+00   -7.5117607686E+00   -7.4766587624E+00   -7.4418832916E+00
-7.4074298209E+00   -7.3732938987E+00   -7.3394711551E+00   -7.3059572998E+00
-7.2727481209E+00   -7.2398394823E+00   -7.2072273228E+00   -7.1749076539E+00
-7.1428765581E+00   -7.1111301879E+00   -7.0796647637E+00   -7.0484765726E+00
-7.0175619667E+00   -6.9869173620E+00   -6.9565392366E+00   -6.9264241297E+00
-6.8965686404E+00   -6.8669694257E+00   -6.8376232002E+00   -6.8085267341E+00
-6.7796768525E+00   -6.7510704341E+00   -6.7227044100E+00   -6.6945757626E+00
-6.6666815247E+00   -6.6390187783E+00   -6.6115846537E+00   -6.5843763284E+00
-6.5573910260E+00   -6.5306260157E+00   -6.5040786108E+00   -6.4777461685E+00
-6.4516260883E+00   -6.4257158116E+00   -6.4000128207E+00   -6.3745146381E+00
-6.3492188255E+00   -6.3241229832E+00   -6.2992247493E+00   -6.2745217990E+00
-6.2500118438E+00   -6.2256926307E+00   -6.2015619418E+00   -6.1776175934E+00
-6.1538574352E+00   -6.1302793502E+00   -6.1068812534E+00   -6.0836610918E+00
-6.0606168433E+00   -6.0377465164E+00   -6.0150481494E+00   -5.9925198103E+00
-5.9701595956E+00   -5.9479656304E+00   -5.9259360673E+00   -5.9040690864E+00
-5.8823628943E+00   -5.8608157243E+00   -5.8394258350E+00   -5.8181915107E+00
-5.7971110603E+00   -5.7761828174E+00   -5.7554051393E+00   -5.7347764070E+00
-5.7142950246E+00   -5.6939594190E+00   -5.6737680392E+00   -5.6537193564E+00
-5.6338118631E+00   -5.6140440730E+00   -5.5944145207E+00   -5.5749217612E+00
-5.5555643694E+00   -5.5363409402E+00   -5.5172500877E+00   -5.4982904450E+00
-5.4794606641E+00   -5.4607594153E+00   -5.4421853869E+00   -5.4237372853E+00
-5.4054138339E+00   -5.3872137738E+00   -5.3691358627E+00   -5.3511788749E+00
-5.3333416012E+00   -5.3156228485E+00   -5.2980214392E+00   -5.2805362116E+00
-5.2631660190E+00   -5.2459097300E+00   -5.2287662278E+00   -5.2117344102E+00
-5.1948131894E+00   -5.1780014916E+00   -5.1612982568E+00   -5.1447024388E+00
-5.1282130046E+00   -5.1118289346E+00   -5.0955492221E+00   -5.0793728731E+00
-5.0632989065E+00   -5.0473263531E+00   -5.0314542563E+00   -5.0156816713E+00
-5.0000076652E+00   -4.9844313165E+00   -4.9689517156E+00   -4.9535679637E+00
-4.9382791733E+00   -4.9230844679E+00   -4.9079829816E+00   -4.8929738592E+00
-4.8780562559E+00   -4.8632293371E+00   -4.8484922785E+00   -4.8338442654E+00
-4.8192844934E+00   -4.8048121675E+00   -4.7904265021E+00   -4.7761267212E+00
-4.7619120579E+00   -4.7477817546E+00   -4.7337350624E+00   -4.7197712415E+00
-4.7058895605E+00   -4.6920892969E+00   -4.6783697365E+00   -4.6647301733E+00
-4.6511699097E+00   -4.6376882562E+00   -4.6242845312E+00   -4.6109580608E+00
-4.5977081792E+00   -4.5845342279E+00   -4.5714355562E+00   -4.5584115205E+00
-4.5454614849E+00   -4.5325848203E+00   -4.5197809050E+00   -4.5070491242E+00
-4.4943888701E+00   -4.4817995415E+00   -4.4692805441E+00   -4.4568312902E+00
-4.4444511986E+00   -4.4321396945E+00   -4.4198962095E+00   -4.4077201815E+00
-4.3956110545E+00   -4.3835682786E+00   -4.3715913101E+00   -4.3596796108E+00
-4.3478326488E+00   -4.3360498977E+00   -4.3243308370E+00   -4.3126749515E+00
-4.3010817318E+00   -4.2895506740E+00   -4.2780812792E+00   -4.2666730544E+00
-4.2553255114E+00   -4.2440381673E+00   -4.2328105443E+00   -4.2216421698E+00
-4.2105325760E+00   -4.1994813000E+00   -4.1884878839E+00   -4.1775518745E+00
-4.1666728232E+00   -4.1558502862E+00   -4.1450838243E+00   -4.1343730029E+00
-4.1237173916E+00   -4.1131165648E+00   -4.1025701010E+00   -4.0920775831E+00
-4.0816385982E+00   -4.0712527378E+00   -4.0609195972E+00   -4.0506387762E+00
-4.0404098783E+00   -4.0302325112E+00   -4.0201062865E+00   -4.0100308196E+00
-4.0000057299E+00   -3.9900306404E+00   -3.9801051781E+00   -3.9702289735E+00
-3.9604016608E+00   -3.9506228780E+00   -3.9408922663E+00   -3.9312094707E+00
-3.9215741396E+00   -3.9119859250E+00   -3.9024444820E+00   -3.8929494692E+00
-3.8835005485E+00   -3.8740973853E+00   -3.8647396478E+00   -3.8554270077E+00
-3.8461591398E+00   -3.8369357219E+00   -3.8277564352E+00   -3.8186209635E+00
-3.8095289940E+00   -3.8004802166E+00   -3.7914743243E+00   -3.7825110130E+00
-3.7735899813E+00   -3.7647109309E+00   -3.7558735660E+00   -3.7470775939E+00
-3.7383227243E+00   -3.7296086699E+00   -3.7209351459E+00   -3.7123018702E+00
-3.7037085633E+00   -3.6951549482E+00   -3.6866407507E+00   -3.6781656988E+00
-3.6697295233E+00   -3.6613319572E+00   -3.6529727360E+00   -3.6446515978E+00
-3.6363682830E+00   -3.6281225341E+00   -3.6199140962E+00   -3.6117427167E+00
-3.6036081452E+00   -3.5955101335E+00   -3.5874484357E+00   -3.5794228081E+00
-3.5714330091E+00   -3.5634787994E+00   -3.5555599417E+00   -3.5476762009E+00
-3.5398273439E+00   -3.5320131396E+00   -3.5242333591E+00   -3.5164877754E+00
-3.5087761635E+00   -3.5010983005E+00   -3.4934539652E+00   -3.4858429385E+00
-3.4782650033E+00   -3.4707199441E+00   -3.4632075475E+00   -3.4557276018E+00
-3.4482798973E+00   -3.4408642259E+00   -3.4334803814E+00   -3.4261281594E+00
-3.4188073571E+00   -3.4115177735E+00   -3.4042592095E+00   -3.3970314674E+00
-3.3898343513E+00   -3.3826676670E+00   -3.3755312219E+00   -3.3684248250E+00
-3.3613482869E+00   -3.3543014198E+00   -3.3472840375E+00   -3.3402959554E+00
-3.3333369903E+00   -3.3264069606E+00   -3.3195056862E+00   -3.3126329885E+00
-3.3057886905E+00   -3.2989726163E+00   -3.2921845919E+00   -3.2854244444E+00
-3.2786920024E+00   -3.2719870959E+00   -3.2653095565E+00   -3.2586592168E+00
-3.2520359111E+00   -3.2454394748E+00   -3.2388697447E+00   -3.2323265590E+00
-3.2258097571E+00   -3.2193191798E+00   -3.2128546691E+00   -3.2064160683E+00
-3.2000032219E+00   -3.1936159758E+00   -3.1872541769E+00   -3.1809176734E+00
-3.1746063148E+00   -3.1683199517E+00   -3.1620584359E+00   -3.1558216204E+00
-3.1496093593E+00   -3.1434215080E+00   -3.1372579227E+00   -3.1311184611E+00
-3.1250029818E+00   -3.1189113446E+00   -3.1128434102E+00   -3.1067990407E+00
-3.1007780990E+00   -3.0947804492E+00   -3.0888059564E+00   -3.0828544867E+00
-3.0769259073E+00   -3.0710200864E+00   -3.0651368932E+00   -3.0592761979E+00
-3.0534378717E+00   -3.0476217868E+00   -3.0418278163E+00   -3.0360558344E+00
-3.0303057161E+00   -3.0245773373E+00   -3.0188705752E+00   -3.0131853075E+00
-3.0075214130E+00   -3.0018787714E+00   -2.9962572633E+00   -2.9906567703E+00
-2.9850771747E+00   -2.9795183597E+00   -2.9739802095E+00   -2.9684626091E+00
-2.9629654443E+00   -2.9574886017E+00   -2.9520319689E+00   -2.9465954343E+00
-2.9411788870E+00   -2.9357822169E+00   -2.9304053149E+00   -2.9250480726E+00
-2.9197103823E+00   -2.9143921371E+00   -2.9090932311E+00   -2.9038135588E+00
-2.8985530159E+00   -2.8933114985E+00   -2.8880889036E+00   -2.8828851288E+00
-2.8777000727E+00   -2.8725336345E+00   -2.8673857140E+00   -2.8622562118E+00
-2.8571450294E+00   -2.8520520687E+00   -2.8469772324E+00   -2.8419204240E+00
-2.8368815476E+00   -2.8318605079E+00   -2.8268572105E+00   -2.8218715615E+00
-2.8169034676E+00   -2.8119528362E+00   -2.8070195756E+00   -2.8021035943E+00
-2.7972048019E+00   -2.7923231082E+00   -2.7874584240E+00   -2.7826106604E+00
-2.7777797294E+00   -2.7729655434E+00   -2.7681680156E+00   -2.7633870596E+00
-2.7586225896E+00   -2.7538745206E+00   -2.7491427681E+00   -2.7444272480E+00
-2.7397278770E+00   -2.7350445722E+00   -2.7303772515E+00   -2.7257258331E+00
-2.7210902359E+00   -2.7164703793E+00   -2.7118661833E+00   -2.7072775683E+00
-2.7027044554E+00   -2.6981467663E+00   -2.6936044229E+00   -2.6890773480E+00
-2.6845654646E+00   -2.6800686964E+00   -2.6755869676E+00   -2.6711202029E+00
-2.6666683275E+00   -2.6622312670E+00   -2.6578089476E+00   -2.6534012959E+00
-2.6490082392E+00   -2.6446297050E+00   -2.6402656214E+00   -2.6359159171E+00
-2.6315805211E+00   -2.6272593628E+00   -2.6229523723E+00   -2.6186594800E+00
-2.6143806168E+00   -2.6101157140E+00   -2.6058647035E+00   -2.6016275174E+00
-2.5974040884E+00   -2.5931943497E+00   -2.5889982348E+00   -2.5848156776E+00
-2.5806466126E+00   -2.5764909746E+00   -2.5723486988E+00   -2.5682197208E+00
-2.5641039768E+00   -2.5600014032E+00   -2.5559119369E+00   -2.5518355152E+00
-2.5477720757E+00   -2.5437215566E+00   -2.5396838963E+00   -2.5356590337E+00
-2.5316469081E+00   -2.5276474590E+00   -2.5236606265E+00   -2.5196863510E+00
-2.5157245732E+00   -2.5117752344E+00   -2.5078382759E+00   -2.5039136397E+00
-2.5000012681E+00   -2.4961011035E+00   -2.4922130891E+00   -2.4883371680E+00
-2.4844732840E+00   -2.4806213810E+00   -2.4767814035E+00   -2.4729532961E+00
-2.4691370039E+00   -2.4653324722E+00   -2.4615396468E+00   -2.4577584738E+00
-2.4539888995E+00   -2.4502308706E+00   -2.4464843341E+00   -2.4427492375E+00
-2.4390255285E+00   -2.4353131549E+00   -2.4316120652E+00   -2.4279222080E+00
-2.4242435321E+00   -2.4205759870E+00   -2.4169195220E+00   -2.4132740872E+00
-2.4096396326E+00   -2.4060161087E+00   -2.4024034663E+00   -2.3988016565E+00
-2.3952106305E+00   -2.3916303401E+00   -2.3880607371E+00   -2.3845017738E+00
-2.3809534026E+00   -2.3774155765E+00   -2.3738882483E+00   -2.3703713716E+00
-2.3668648998E+00   -2.3633687869E+00   -2.3598829870E+00   -2.3564074547E+00
-2.3529421445E+00   -2.3494870114E+00   -2.3460420107E+00   -2.3426070979E+00