Ne    ONCVPSP-4.0.1  r_core=   1.30478   1.70784
10.0000      8.0000      220429    zatom,zion,pspd
8      11   1     4   400     0    pspcod,pspxc,lmax,lloc,mmax,r2well
3.99000000  2.50000000  0.00000000    rchrg fchrg qchrg
2     2     0     0     0    nproj
1     1           extension_switch
0                         2.1711318974093E+00 -4.5511172492943E-01
1  0.0000000000000E+00 -5.1776534171211E-09 -1.1563083268662E-09
2  1.0000000000000E-02  9.8293482674759E-02  1.7643472014460E-02
3  2.0000000000000E-02  1.9611445570957E-01  3.5299412562689E-02
4  3.0000000000000E-02  2.9299516281391E-01  5.2980708353089E-02
5  4.0000000000000E-02  3.8847727874505E-01  7.0701068642055E-02
6  5.0000000000000E-02  4.8211643705936E-01  8.8475402308652E-02
7  6.0000000000000E-02  5.7348653630602E-01  1.0632015473498E-01
8  7.0000000000000E-02  6.6218375701992E-01  1.2425359248442E-01
9  8.0000000000000E-02  7.4783022704848E-01  1.4229602492615E-01
10  9.0000000000000E-02  8.3007727904116E-01  1.6046995335672E-01
11  1.0000000000000E-01  9.0860825122762E-01  1.7880013978893E-01
12  1.1000000000000E-01  9.8314079077808E-01  1.9731358938491E-01
13  1.2000000000000E-01  1.0534286279302E+00  2.1603944246549E-01
14  1.3000000000000E-01  1.1192627985186E+00  2.3500877409555E-01
15  1.4000000000000E-01  1.1804723023857E+00  2.5425430138127E-01
16  1.5000000000000E-01  1.2369241952078E+00  2.7381000077891E-01
17  1.6000000000000E-01  1.2885231213510E+00  2.9371063986097E-01
18  1.7000000000000E-01  1.3352103053035E+00  3.1399123007165E-01
19  1.8000000000000E-01  1.3769620288218E+00  3.3468640898568E-01
20  1.9000000000000E-01  1.4137876300130E+00  3.5582976242276E-01
21  2.0000000000000E-01  1.4457270689815E+00  3.7745309842444E-01
22  2.1000000000000E-01  1.4728481122451E+00  3.9958568653671E-01
23  2.2000000000000E-01  1.4952431947324E+00  4.2225347702802E-01
24  2.3000000000000E-01  1.5130260236877E+00  4.4547831558204E-01
25  2.4000000000000E-01  1.5263279931317E+00  4.6927716961560E-01
26  2.5000000000000E-01  1.5352944805694E+00  4.9366138266842E-01
27  2.6000000000000E-01  1.5400810993540E+00  5.1863597328235E-01
28  2.7000000000000E-01  1.5408499804559E+00  5.4419899442944E-01
29  2.8000000000000E-01  1.5377661563617E+00  5.7034096886226E-01
30  2.9000000000000E-01  1.5309941174341E+00  5.9704441475520E-01
31  3.0000000000000E-01  1.5206946073557E+00  6.2428347469595E-01
32  3.1000000000000E-01  1.5070217193185E+00  6.5202365949278E-01
33  3.2000000000000E-01  1.4901203484881E+00  6.8022171641182E-01
34  3.3000000000000E-01  1.4701240490887E+00  7.0882562938015E-01
35  3.4000000000000E-01  1.4471533363377E+00  7.3777475642151E-01
36  3.5000000000000E-01  1.4213144645704E+00  7.6700010717222E-01
37  3.6000000000000E-01  1.3926987033748E+00  7.9642476079761E-01
38  3.7000000000000E-01  1.3613821236052E+00  8.2596442204127E-01
39  3.8000000000000E-01  1.3274258949160E+00  8.5552811053810E-01
40  3.9000000000000E-01  1.2908770861648E+00  8.8501897595509E-01
41  4.0000000000000E-01  1.2517699498512E+00  9.1433522904125E-01
42  4.1000000000000E-01  1.2101276618834E+00  9.4337117631698E-01
43  4.2000000000000E-01  1.1659644785795E+00  9.7201834395878E-01
44  4.3000000000000E-01  1.1192882640914E+00  1.0001666744828E+00
45  4.4000000000000E-01  1.0701033335554E+00  1.0277057781382E+00
46  4.5000000000000E-01  1.0184135503704E+00  1.0545262195240E+00
47  4.6000000000000E-01  9.6422561022522E-01  1.0805208188773E+00
48  4.7000000000000E-01  9.0755243994849E-01  1.1055859467593E+00
49  4.8000000000000E-01  8.4841663603223E-01  1.1296227905223E+00
50  4.9000000000000E-01  7.8685386586214E-01  1.1525385709801E+00
51  5.0000000000000E-01  7.2291615430426E-01  1.1742476881267E+00
52  5.1000000000000E-01  6.5667497938085E-01  1.1946727755685E+00
53  5.2000000000000E-01  5.8822410330380E-01  1.2137456445272E+00
54  5.3000000000000E-01  5.1768206908961E-01  1.2314080998312E+00
55  5.4000000000000E-01  4.4519429829656E-01  1.2476126122157E+00
56  5.5000000000000E-01  3.7093473201658E-01  1.2623228334656E+00
57  5.6000000000000E-01  2.9510696501220E-01  1.2755139434330E+00
58  5.7000000000000E-01  2.1794483168447E-01  1.2871728206915E+00
59  5.8000000000000E-01  1.3971241223626E-01  1.2972980315178E+00
60  5.9000000000000E-01  6.0703437794101E-02  1.3058996349664E+00
61  6.0000000000000E-01 -1.8759915816203E-02  1.3129988049612E+00
62  6.1000000000000E-01 -9.8328844668723E-02  1.3186272735363E+00
63  6.2000000000000E-01 -1.7763033132391E-01  1.3228266025364E+00
64  6.3000000000000E-01 -2.5627013366222E-01  1.3256472941974E+00
65  6.4000000000000E-01 -3.3383631314259E-01  1.3271477540037E+00
66  6.5000000000000E-01 -4.0990325705441E-01  1.3273931220061E+00
67  6.6000000000000E-01 -4.8403613939147E-01  1.3264539913397E+00
68  6.7000000000000E-01 -5.5579575589264E-01  1.3244050349429E+00
69  6.8000000000000E-01 -6.2474366073653E-01  1.3213235634129E+00
70  6.9000000000000E-01 -6.9044752550453E-01  1.3172880385010E+00
71  7.0000000000000E-01 -7.5248663547169E-01  1.3123765679058E+00
72  7.1000000000000E-01 -8.1045743416312E-01  1.3066654077636E+00
73  7.2000000000000E-01 -8.6397902451303E-01  1.3002274995117E+00
74  7.3000000000000E-01 -9.1269853394717E-01  1.2931310676321E+00
75  7.4000000000000E-01 -9.5629625131260E-01  1.2854383041412E+00
76  7.5000000000000E-01 -9.9449044580817E-01  1.2772041645968E+00
77  7.6000000000000E-01 -1.0270417819021E+00  1.2684752988493E+00
78  7.7000000000000E-01 -1.0537572496102E+00  1.2592891377982E+00
79  7.8000000000000E-01 -1.0744935363700E+00  1.2496731550468E+00
80  7.9000000000000E-01 -1.0891597749781E+00  1.2396443196223E+00
81  8.0000000000000E-01 -1.0977196115288E+00  1.2292087528785E+00
82  8.1000000000000E-01 -1.1001925478484E+00  1.2183615993820E+00
83  8.2000000000000E-01 -1.0966545243916E+00  1.2070871180407E+00
84  8.3000000000000E-01 -1.0872377217539E+00  1.1953589960398E+00
85  8.4000000000000E-01 -1.0721295716635E+00  1.1831408843501E+00
86  8.5000000000000E-01 -1.0515709813189E+00  1.1703871497430E+00
87  8.6000000000000E-01 -1.0258537880228E+00  1.1570438344437E+00
88  8.7000000000000E-01 -9.9531747399342E-01  1.1430498108484E+00
89  8.8000000000000E-01 -9.6034518378929E-01  1.1283381151850E+00
90  8.9000000000000E-01 -9.2135909874300E-01  1.1128374406708E+00
91  9.0000000000000E-01 -8.7881523395001E-01  1.0964737676832E+00
92  9.1000000000000E-01 -8.3319773349872E-01  1.0791721057500E+00
93  9.2000000000000E-01 -7.8501274857813E-01  1.0608583198531E+00
94  9.3000000000000E-01 -7.3478199069259E-01  1.0414610116503E+00
95  9.4000000000000E-01 -6.8303605830849E-01  1.0209134248042E+00
96  9.5000000000000E-01 -6.3030763973849E-01  9.9915534268761E-01
97  9.6000000000000E-01 -5.7712469784547E-01  9.7613494633364E-01
98  9.7000000000000E-01 -5.2400374316100E-01  9.5181060063080E-01
99  9.8000000000000E-01 -4.7144330123081E-01  9.2615253743113E-01
100  9.9000000000000E-01 -4.1991767742343E-01  8.9914440543615E-01
101  1.0000000000000E+00 -3.6987111809886E-01  8.7078465844007E-01
102  1.0100000000000E+00 -3.2171246099700E-01  8.4108775571592E-01
103  1.0200000000000E+00 -2.7581036006066E-01  8.1008515099812E-01
104  1.0300000000000E+00 -2.3248916077235E-01  7.7782604960500E-01
105  1.0400000000000E+00 -1.9202549161557E-01  7.4437791670755E-01
106  1.0500000000000E+00 -1.5464562563252E-01  7.0982672353327E-01
107  1.0600000000000E+00 -1.2052365342309E-01  6.7427692234112E-01
108  1.0700000000000E+00 -8.9780495564041E-02  6.3785114523763E-01
109  1.0800000000000E+00 -6.2483768484423E-02  6.0068962627610E-01
110  1.0900000000000E+00 -3.8648503610381E-02  5.6294935070006E-01
111  1.1000000000000E+00 -1.8238705297920E-02  5.2480293959735E-01
112  1.1100000000000E+00 -1.1697189325083E-03  4.8643728255240E-01
113  1.1200000000000E+00  1.2688633096624E-02  4.4805193503019E-01
114  1.1300000000000E+00  2.3508202928527E-02  4.0985730116144E-01
115  1.1400000000000E+00  3.1498023772709E-02  3.7207262621123E-01
116  1.1500000000000E+00  3.6899250092373E-02  3.3492382629524E-01
117  1.1600000000000E+00  3.9979619811380E-02  2.9864118574720E-01
118  1.1700000000000E+00  4.1027535309571E-02  2.6345695494063E-01
119  1.1800000000000E+00  4.0345866683758E-02  2.2960288324130E-01
120  1.1900000000000E+00  3.8245585793196E-02  1.9730772311361E-01
121  1.2000000000000E+00  3.5039342808789E-02  1.6679474217776E-01
122  1.2100000000000E+00  3.1035098331521E-02  1.3827928021158E-01
123  1.2200000000000E+00  2.6529927757119E-02  1.1196638657466E-01
124  1.2300000000000E+00  2.1804071824203E-02  8.8048582182969E-02
125  1.2400000000000E+00  1.7115209879378E-02  6.6703833216627E-02
126  1.2500000000000E+00  1.2681134676824E-02  4.8096681400094E-02
127  1.2600000000000E+00  8.6968456181213E-03  3.2370274608319E-02
128  1.2700000000000E+00  5.3361828748132E-03  1.9644690627153E-02
129  1.2800000000000E+00  2.7314011366712E-03  1.0020634131777E-02
130  1.2900000000000E+00  9.7056683108884E-04  3.5745351491542E-03
131  1.3000000000000E+00  1.1095372313471E-04  4.1334443594594E-04
132  1.3100000000000E+00 -9.1329256776136E-06 -3.4292420950878E-05
133  1.3200000000000E+00  6.5775727589010E-07  2.4542078741222E-06
134  1.33 -0.  0.
135  1.34  0.  0.
136  1.35  0.  0.
137  1.36  0.  0.
138  1.37  0.  0.
139  1.38  0.  0.
140  1.39  0.  0.
141  1.40  0.  0.
142  1.41  0.  0.
143  1.42  0.  0.
144  1.43  0.  0.
145  1.44  0.  0.
146  1.45  0.  0.
147  1.46  0.  0.
148  1.47  0.  0.
149  1.48  0.  0.
150  1.49  0.  0.
151  1.50  0.  0.
152  1.51  0.  0.
153  1.52  0.  0.
154  1.53  0.  0.
155  1.54  0.  0.
156  1.55  0.  0.
157  1.56  0.  0.
158  1.57  0.  0.
159  1.58  0.  0.
160  1.59  0.  0.
161  1.60  0.  0.
162  1.61  0.  0.
163  1.62  0.  0.
164  1.63  0.  0.
165  1.64  0.  0.
166  1.65  0.  0.
167  1.66  0.  0.
168  1.67  0.  0.
169  1.68  0.  0.
170  1.69  0.  0.
171  1.70  0.  0.
172  1.71  0.  0.
173  1.72  0.  0.
174  1.73  0.  0.
175  1.74  0.  0.
176  1.75  0.  0.
177  1.76  0.  0.
178  1.77  0.  0.
179  1.78  0.  0.
180  1.79  0.  0.
181  1.80  0.  0.
182  1.81  0.  0.
183  1.82  0.  0.
184  1.83  0.  0.
185  1.84  0.  0.
186  1.85  0.  0.
187  1.86  0.  0.
188  1.87  0.  0.
189  1.88  0.  0.
190  1.89  0.  0.
191  1.90  0.  0.
192  1.91  0.  0.
193  1.92  0.  0.
194  1.93  0.  0.
195  1.94  0.  0.
196  1.95  0.  0.
197  1.96  0.  0.
198  1.97  0.  0.
199  1.98  0.  0.
200  1.99  0.  0.
201  2.00  0.  0.
202  2.01  0.  0.
203  2.02  0.  0.
204  2.03  0.  0.
205  2.04  0.  0.
206  2.05  0.  0.
207  2.06  0.  0.
208  2.07  0.  0.
209  2.08  0.  0.
210  2.09  0.  0.
211  2.10  0.  0.
212  2.11  0.  0.
213  2.12  0.  0.
214  2.13  0.  0.
215  2.14  0.  0.
216  2.15  0.  0.
217  2.16  0.  0.
218  2.17  0.  0.
219  2.18  0.  0.
220  2.19  0.  0.
221  2.20  0.  0.
222  2.21  0.  0.
223  2.22  0.  0.
224  2.23  0.  0.
225  2.24  0.  0.
226  2.25  0.  0.
227  2.26  0.  0.
228  2.27  0.  0.
229  2.28  0.  0.
230  2.29  0.  0.
231  2.30  0.  0.
232  2.31  0.  0.
233  2.32  0.  0.
234  2.33  0.  0.
235  2.34  0.  0.
236  2.35  0.  0.
237  2.36  0.  0.
238  2.37  0.  0.
239  2.38  0.  0.
240  2.39  0.  0.
241  2.40  0.  0.
242  2.41  0.  0.
243  2.42  0.  0.
244  2.43  0.  0.
245  2.44  0.  0.
246  2.45  0.  0.
247  2.46  0.  0.
248  2.47  0.  0.
249  2.48  0.  0.
250  2.49  0.  0.
251  2.50  0.  0.
252  2.51  0.  0.
253  2.52  0.  0.
254  2.53  0.  0.
255  2.54  0.  0.
256  2.55  0.  0.
257  2.56  0.  0.
258  2.57  0.  0.
259  2.58  0.  0.
260  2.59  0.  0.
261  2.60  0.  0.
262  2.61  0.  0.
263  2.62  0.  0.
264  2.63  0.  0.
265  2.64  0.  0.
266  2.65  0.  0.
267  2.66  0.  0.
268  2.67  0.  0.
269  2.68  0.  0.
270  2.69  0.  0.
271  2.70  0.  0.
272  2.71  0.  0.
273  2.72  0.  0.
274  2.73  0.  0.
275  2.74  0.  0.
276  2.75  0.  0.
277  2.76  0.  0.
278  2.77  0.  0.
279  2.78  0.  0.
280  2.79  0.  0.
281  2.80  0.  0.
282  2.81  0.  0.
283  2.82  0.  0.
284  2.83  0.  0.
285  2.84  0.  0.
286  2.85  0.  0.
287  2.86  0.  0.
288  2.87  0.  0.
289  2.88  0.  0.
290  2.89  0.  0.
291  2.90  0.  0.
292  2.91  0.  0.
293  2.92  0.  0.
294  2.93  0.  0.
295  2.94  0.  0.
296  2.95  0.  0.
297  2.96  0.  0.
298  2.97  0.  0.
299  2.98  0.  0.
300  2.99  0.  0.
301  3.00  0.  0.
302  3.01  0.  0.
303  3.02  0.  0.
304  3.03  0.  0.
305  3.04  0.  0.
306  3.05  0.  0.
307  3.06  0.  0.
308  3.07  0.  0.
309  3.08  0.  0.
310  3.09  0.  0.
311  3.10  0.  0.
312  3.11  0.  0.
313  3.12  0.  0.
314  3.13  0.  0.
315  3.14  0.  0.
316  3.15  0.  0.
317  3.16  0.  0.
318  3.17  0.  0.
319  3.18  0.  0.
320  3.19  0.  0.
321  3.20  0.  0.
322  3.21  0.  0.
323  3.22  0.  0.
324  3.23  0.  0.
325  3.24  0.  0.
326  3.25  0.  0.
327  3.26  0.  0.
328  3.27  0.  0.
329  3.28  0.  0.
330  3.29  0.  0.
331  3.30  0.  0.
332  3.31  0.  0.
333  3.32  0.  0.
334  3.33  0.  0.
335  3.34  0.  0.
336  3.35  0.  0.
337  3.36  0.  0.
338  3.37  0.  0.
339  3.38  0.  0.
340  3.39  0.  0.
341  3.40  0.  0.
342  3.41  0.  0.
343  3.42  0.  0.
344  3.43  0.  0.
345  3.44  0.  0.
346  3.45  0.  0.
347  3.46  0.  0.
348  3.47  0.  0.
349  3.48  0.  0.
350  3.49  0.  0.
351  3.50  0.  0.
352  3.51  0.  0.
353  3.52  0.  0.
354  3.53  0.  0.
355  3.54  0.  0.
356  3.55  0.  0.
357  3.56  0.  0.
358  3.57  0.  0.
359  3.58  0.  0.
360  3.59  0.  0.
361  3.60  0.  0.
362  3.61  0.  0.
363  3.62  0.  0.
364  3.63  0.  0.
365  3.64  0.  0.
366  3.65  0.  0.
367  3.66  0.  0.
368  3.67  0.  0.
369  3.68  0.  0.
370  3.69  0.  0.
371  3.70  0.  0.
372  3.71  0.  0.
373  3.72  0.  0.
374  3.73  0.  0.
375  3.74  0.  0.
376  3.75  0.  0.
377  3.76  0.  0.
378  3.77  0.  0.
379  3.78  0.  0.
380  3.79  0.  0.
381  3.80  0.  0.
382  3.81  0.  0.
383  3.82  0.  0.
384  3.83  0.  0.
385  3.84  0.  0.
386  3.85  0.  0.
387  3.86  0.  0.
388  3.87  0.  0.
389  3.88  0.  0.
390  3.89  0.  0.
391  3.90  0.  0.
392  3.91  0.  0.
393  3.92  0.  0.
394  3.93  0.  0.
395  3.94  0.  0.
396  3.95  0.  0.
397  3.96  0.  0.
398  3.97  0.  0.
399  3.98  0.  0.
400  3.99  0.  0.
1                        -5.2258786109581E+00 -1.5592170071215E+00
1  0.0000000000000E+00  4.5985350249911E-10 -8.9002687858608E-10
2  1.0000000000000E-02  1.6717748515539E-03 -8.6785882738552E-04
3  2.0000000000000E-02  6.6798049054979E-03 -3.4640087918756E-03
4  3.0000000000000E-02  1.5002243482300E-02 -7.7662256040318E-03
5  4.0000000000000E-02  2.6602801943843E-02 -1.3737652508574E-02
6  5.0000000000000E-02  4.1430932570574E-02 -2.1327074183470E-02
7  6.0000000000000E-02  5.9422082868570E-02 -3.0469296833560E-02
8  7.0000000000000E-02  8.0498019604176E-02 -4.1085631155329E-02
9  8.0000000000000E-02  1.0456722040401E-01 -5.3084473959399E-02
10  9.0000000000000E-02  1.3152533031751E-01 -6.6361983390316E-02
11  1.0000000000000E-01  1.6125568032210E-01 -8.0802841888821E-02
12  1.1000000000000E-01  1.9362986436062E-01 -9.6281100307336E-02
13  1.2000000000000E-01  2.2850837114094E-01 -1.1266109592277E-01
14  1.3000000000000E-01  2.6574126660071E-01 -1.2979843649815E-01
15  1.4000000000000E-01  3.0516892264979E-01 -1.4754104203237E-01
16  1.5000000000000E-01  3.4662278755023E-01 -1.6573023540963E-01
17  1.6000000000000E-01  3.8992619308157E-01 -1.8420187282161E-01
18  1.7000000000000E-01  4.3489519346824E-01 -2.0278750458863E-01
19  1.8000000000000E-01  4.8133943091789E-01 -2.2131555685282E-01
20  1.9000000000000E-01  5.2906302253419E-01 -2.3961252455765E-01
21  2.0000000000000E-01  5.7786546332616E-01 -2.5750416616411E-01
22  2.1000000000000E-01  6.2754254003676E-01 -2.7481669068261E-01
23  2.2000000000000E-01  6.7788725055691E-01 -2.9137792781905E-01
24  2.3000000000000E-01  7.2869072377514E-01 -3.0701847234134E-01
25  2.4000000000000E-01  7.7974313483635E-01 -3.2157279416224E-01
26  2.5000000000000E-01  8.3083461094364E-01 -3.3488030610377E-01
27  2.6000000000000E-01  8.8175612303272E-01 -3.4678638184848E-01
28  2.7000000000000E-01  9.3230035887576E-01 -3.5714331718909E-01
29  2.8000000000000E-01  9.8226257342821E-01 -3.6581122835186E-01
30  2.9000000000000E-01  1.0314414125146E+00 -3.7265888188241E-01
31  3.0000000000000E-01  1.0796397062536E+00 -3.7756445133733E-01
32  3.1000000000000E-01  1.1266652289471E+00 -3.8041619681234E-01
33  3.2000000000000E-01  1.1723314224940E+00 -3.8111306414673E-01
34  3.3000000000000E-01  1.2164580807409E+00 -3.7956520146783E-01
35  3.4000000000000E-01  1.2588719925359E+00 -3.7569439156593E-01
36  3.5000000000000E-01  1.2994075416108E+00 -3.6943439941179E-01
37  3.6000000000000E-01  1.3379072617762E+00 -3.6073123493584E-01
38  3.7000000000000E-01  1.3742223462653E+00 -3.4954333197061E-01
39  3.8000000000000E-01  1.4082131104083E+00 -3.3584164500849E-01
40  3.9000000000000E-01  1.4397494071523E+00 -3.1960966613638E-01
41  4.0000000000000E-01  1.4687109952592E+00 -3.0084336516971E-01
42  4.1000000000000E-01  1.4949878603141E+00 -2.7955105661462E-01
43  4.2000000000000E-01  1.5184804889566E+00 -2.5575319763123E-01
44  4.3000000000000E-01  1.5391000970044E+00 -2.2948212164903E-01
45  4.4000000000000E-01  1.5567688123685E+00 -2.0078171269178E-01
46  4.5000000000000E-01  1.5714198138660E+00 -1.6970702580150E-01
47  4.6000000000000E-01  1.5829974272144E+00 -1.3632385920595E-01
48  4.7000000000000E-01  1.5914571796384E+00 -1.0070828405016E-01
49  4.8000000000000E-01  1.5967658146432E+00 -6.2946137609915E-02
50  4.9000000000000E-01  1.5989012685979E+00 -2.3132485923856E-02
51  5.0000000000000E-01  1.5978526108369E+00  1.8628938277562E-02
52  5.1000000000000E-01  1.5936199490230E+00  6.2226316599934E-02
53  5.2000000000000E-01  1.5862143015276E+00  1.0754033942665E-01
54  5.3000000000000E-01  1.5756574385647E+00  1.5444480850082E-01
55  5.4000000000000E-01  1.5619816937828E+00  2.0280724270360E-01
56  5.5000000000000E-01  1.5452297479590E+00  2.5248948247040E-01
57  5.6000000000000E-01  1.5254543863641E+00  3.0334828871883E-01
58  5.7000000000000E-01  1.5027182312785E+00  3.5523593263610E-01
59  5.8000000000000E-01  1.4770934510348E+00  4.0800077317927E-01
60  5.9000000000000E-01  1.4486614468539E+00  4.6148781967207E-01
61  6.0000000000000E-01  1.4175125186206E+00  5.1553927742810E-01
62  6.1000000000000E-01  1.3837455106291E+00  5.6999507488294E-01
63  6.2000000000000E-01  1.3474674382061E+00  6.2469337126872E-01
64  6.3000000000000E-01  1.3087930960066E+00  6.7947104440496E-01
65  6.4000000000000E-01  1.2678446486680E+00  7.3416415870035E-01
66  6.5000000000000E-01  1.2247512044092E+00  7.8860841395393E-01
67  6.6000000000000E-01  1.1796483720793E+00  8.4263957600193E-01
68  6.7000000000000E-01  1.1326778020855E+00  8.9609389067221E-01
69  6.8000000000000E-01  1.0839867115808E+00  9.4880848287460E-01
70  6.9000000000000E-01  1.0337273942576E+00  1.0006217429661E+00
71  7.0000000000000E-01  9.8205671508228E-01  1.0513737027808E+00
72  7.1000000000000E-01  9.2913559031415E-01  1.1009064039005E+00
73  7.2000000000000E-01  8.7512845318807E-01  1.1490642608606E+00
74  7.3000000000000E-01  8.2020270569595E-01  1.1956944220329E+00
75  7.4000000000000E-01  7.6452815698334E-01  1.2406471309080E+00
76  7.5000000000000E-01  7.0827644898130E-01  1.2837760903993E+00
77  7.6000000000000E-01  6.5162047001980E-01  1.3249388326354E+00
78  7.7000000000000E-01  5.9473375731627E-01  1.3639970964659E+00
79  7.8000000000000E-01  5.3778988939874E-01  1.4008172146170E+00
80  7.9000000000000E-01  4.8096186970684E-01  1.4352705120692E+00
81  8.0000000000000E-01  4.2442150281144E-01  1.4672337168188E+00
82  8.1000000000000E-01  3.6833876490326E-01  1.4965893837228E+00
83  8.2000000000000E-01  3.1288117041879E-01  1.5232263316176E+00
84  8.3000000000000E-01  2.5821313689469E-01  1.5470400933688E+00
85  8.4000000000000E-01  2.0449535036603E-01  1.5679333779353E+00
86  8.5000000000000E-01  1.5188413384546E-01  1.5858165429535E+00
87  8.6000000000000E-01  1.0053082163521E-01  1.6006080757544E+00
88  8.7000000000000E-01  5.0581142428475E-02  1.6122350801346E+00
89  8.8000000000000E-01  2.1746143461072E-03  1.6206337656285E+00
90  8.9000000000000E-01 -4.4556044774471E-02  1.6257499354699E+00
91  9.0000000000000E-01 -8.9485488373136E-02  1.6275394689075E+00
92  9.1000000000000E-01 -1.3249628985712E-01  1.6259687930569E+00
93  9.2000000000000E-01 -1.7347946530909E-01  1.6210153390360E+00
94  9.3000000000000E-01 -2.1233496647689E-01  1.6126679767598E+00
95  9.4000000000000E-01 -2.4897214028651E-01  1.6009274224623E+00
96  9.5000000000000E-01 -2.8331015113689E-01  1.5858066127814E+00
97  9.6000000000000E-01 -3.1527836229274E-01  1.5673310390915E+00
98  9.7000000000000E-01 -3.4481667279233E-01  1.5455390357058E+00
99  9.8000000000000E-01 -3.7187580643101E-01  1.5204820155930E+00
100  9.9000000000000E-01 -3.9641754957009E-01  1.4922246473771E+00
101  1.0000000000000E+00 -4.1841493475344E-01  1.4608449676039E+00
102  1.0100000000000E+00 -4.3785236739132E-01  1.4264344225706E+00
103  1.0200000000000E+00 -4.5472569309011E-01  1.3890978344254E+00
104  1.0300000000000E+00 -4.6904220356777E-01  1.3489532867479E+00
105  1.0400000000000E+00 -4.8082057949388E-01  1.3061319254151E+00
106  1.0500000000000E+00 -4.9009076902831E-01  1.2607776712407E+00
107  1.0600000000000E+00 -4.9689380130089E-01  1.2130468416351E+00
108  1.0700000000000E+00 -5.0128153456962E-01  1.1631076793726E+00
109  1.0800000000000E+00 -5.0331633931617E-01  1.1111397874490E+00
110  1.0900000000000E+00 -5.0307071707637E-01  1.0573334699743E+00
111  1.1000000000000E+00 -5.0062685635670E-01  1.0018889800430E+00
112  1.1100000000000E+00 -4.9607612755000E-01  9.4501567656564E-01
113  1.1200000000000E+00 -4.8951851932680E-01  8.8693109310260E-01
114  1.1300000000000E+00 -4.8106201954045E-01  8.2785992281239E-01
115  1.1400000000000E+00 -4.7082194423318E-01  7.6803292469152E-01
116  1.1500000000000E+00 -4.5892021886662E-01  7.0768575733787E-01
117  1.1600000000000E+00 -4.4548461641008E-01  6.4705774748638E-01
118  1.1700000000000E+00 -4.3064795740538E-01  5.8639060154950E-01
119  1.1800000000000E+00 -4.1454727757380E-01  5.2592706931411E-01
120  1.1900000000000E+00 -3.9732296894044E-01  4.6590956980404E-01
121  1.2000000000000E+00 -3.7911790081237E-01  4.0657879009018E-01
122  1.2100000000000E+00 -3.6007652725891E-01  3.4817226851189E-01
123  1.2200000000000E+00 -3.4034398799777E-01  2.9092297435434E-01
124  1.2300000000000E+00 -3.2006520978638E-01  2.3505789649109E-01
125  1.2400000000000E+00 -2.9938401555079E-01  1.8079665385046E-01
126  1.2500000000000E+00 -2.7844224855053E-01  1.2835014078086E-01
127  1.2600000000000E+00 -2.5737891887621E-01  7.7919220477022E-02
128  1.2700000000000E+00 -2.3632937950447E-01  2.9693479575782E-02
129  1.2800000000000E+00 -2.1542453899288E-01 -1.6149943162342E-02
130  1.2900000000000E+00 -1.9479011775015E-01 -5.9447441284917E-02
131  1.3000000000000E+00 -1.7454595311811E-01 -1.0004993064336E-01
132  1.3100000000000E+00 -1.5480536489455E-01 -1.3782371520558E-01
133  1.3200000000000E+00 -1.3567435742903E-01 -1.7265199177672E-01
134  1.3300000000000E+00 -1.1725049803918E-01 -2.0443748673896E-01
135  1.3400000000000E+00 -9.9622196533143E-02 -2.3310375925365E-01
136  1.3500000000000E+00 -8.2868256602325E-02 -2.5859568401078E-01
137  1.3600000000000E+00 -6.7057504138642E-02 -2.8087979583363E-01
138  1.3700000000000E+00 -5.2248500800972E-02 -2.9994447188532E-01
139  1.3800000000000E+00 -3.8489343844783E-02 -3.1579995134997E-01
140  1.3900000000000E+00 -2.5817553650082E-02 -3.2847818987532E-01
141  1.4000000000000E+00 -1.4260049618036E-02 -3.3803254757045E-01
142  1.4100000000000E+00 -3.8332143364541E-03 -3.4453731086160E-01
143  1.4200000000000E+00  5.4569548503955E-03 -3.4808704999998E-01
144  1.4300000000000E+00  1.3614608507569E-02 -3.4879581554652E-01
145  1.4400000000000E+00  2.0653724387204E-02 -3.4679617859040E-01
146  1.4500000000000E+00  2.6597706475632E-02 -3.4223812104600E-01
147  1.4600000000000E+00  3.1478907654453E-02 -3.3528778370654E-01
148  1.4700000000000E+00  3.5338080537312E-02 -3.2612608119657E-01
149  1.4800000000000E+00  3.8223761689660E-02 -3.1494719425223E-01
150  1.4900000000000E+00  4.0191595058254E-02 -3.0195695101673E-01
151  1.5000000000000E+00  4.1303600988787E-02 -2.8737111014732E-01
152  1.5100000000000E+00  4.1627397736998E-02 -2.7141355962207E-01
153  1.5200000000000E+00  4.1235382805755E-02 -2.5431444599097E-01
154  1.5300000000000E+00  4.0203881829552E-02 -2.3630824962499E-01
155  1.5400000000000E+00  3.8612273043735E-02 -2.1763182217616E-01
156  1.5500000000000E+00  3.6542095595684E-02 -1.9852240290745E-01
157  1.5600000000000E+00  3.4076150131072E-02 -1.7921563093906E-01
158  1.5700000000000E+00  3.1297600157940E-02 -1.5994357060449E-01
159  1.5800000000000E+00  2.8289082696931E-02 -1.4093276714095E-01
160  1.5900000000000E+00  2.5131836417390E-02 -1.2240234930824E-01
161  1.6000000000000E+00  2.1904858370286E-02 -1.0456220162999E-01
162  1.6100000000000E+00  1.8684085736421E-02 -8.7611198490032E-02
163  1.6200000000000E+00  1.5541624429446E-02 -7.1735543821269E-02
164  1.6300000000000E+00  1.2546290115728E-02 -5.7109868972695E-02
165  1.6400000000000E+00  9.7626799172300E-03 -4.3895287844562E-02
166  1.6500000000000E+00  7.2459823939443E-03 -3.2228501019676E-02
167  1.6600000000000E+00  5.0451787474985E-03 -2.2228435437238E-02
168  1.6700000000000E+00  3.2026105038329E-03 -1.3995341752192E-02
169  1.6800000000000E+00  1.7539889628238E-03 -7.6116234567905E-03
170  1.6900000000000E+00  7.2418721853855E-04 -3.1245291520753E-03
171  1.7000000000000E+00  1.4671514116721E-04 -6.2991294840715E-04
172  1.7100000000000E+00 -9.7158071627694E-06  4.1603371528387E-05
173  1.7200000000000E+00  2.3317654389129E-06 -9.9920844616184E-06
174  1.73 -0.  0.
175  1.74 -0.  0.
176  1.75  0.  0.
177  1.76  0.  0.
178  1.77  0.  0.
179  1.78  0.  0.
180  1.79  0.  0.
181  1.80  0.  0.
182  1.81  0.  0.
183  1.82  0.  0.
184  1.83  0.  0.
185  1.84  0.  0.
186  1.85  0.  0.
187  1.86  0.  0.
188  1.87  0.  0.
189  1.88  0.  0.
190  1.89  0.  0.
191  1.90  0.  0.
192  1.91  0.  0.
193  1.92  0.  0.
194  1.93  0.  0.
195  1.94  0.  0.
196  1.95  0.  0.
197  1.96  0.  0.
198  1.97  0.  0.
199  1.98  0.  0.
200  1.99  0.  0.
201  2.00  0.  0.
202  2.01  0.  0.
203  2.02  0.  0.
204  2.03  0.  0.
205  2.04  0.  0.
206  2.05  0.  0.
207  2.06  0.  0.
208  2.07  0.  0.
209  2.08  0.  0.
210  2.09  0.  0.
211  2.10  0.  0.
212  2.11  0.  0.
213  2.12  0.  0.
214  2.13  0.  0.
215  2.14  0.  0.
216  2.15  0.  0.
217  2.16  0.  0.
218  2.17  0.  0.
219  2.18  0.  0.
220  2.19  0.  0.
221  2.20  0.  0.
222  2.21  0.  0.
223  2.22  0.  0.
224  2.23  0.  0.
225  2.24  0.  0.
226  2.25  0.  0.
227  2.26  0.  0.
228  2.27  0.  0.
229  2.28  0.  0.
230  2.29  0.  0.
231  2.30  0.  0.
232  2.31  0.  0.
233  2.32  0.  0.
234  2.33  0.  0.
235  2.34  0.  0.
236  2.35  0.  0.
237  2.36  0.  0.
238  2.37  0.  0.
239  2.38  0.  0.
240  2.39  0.  0.
241  2.40  0.  0.
242  2.41  0.  0.
243  2.42  0.  0.
244  2.43  0.  0.
245  2.44  0.  0.
246  2.45  0.  0.
247  2.46  0.  0.
248  2.47  0.  0.
249  2.48  0.  0.
250  2.49  0.  0.
251  2.50  0.  0.
252  2.51  0.  0.
253  2.52  0.  0.
254  2.53  0.  0.
255  2.54  0.  0.
256  2.55  0.  0.
257  2.56  0.  0.
258  2.57  0.  0.
259  2.58  0.  0.
260  2.59  0.  0.
261  2.60  0.  0.
262  2.61  0.  0.
263  2.62  0.  0.
264  2.63  0.  0.
265  2.64  0.  0.
266  2.65  0.  0.
267  2.66  0.  0.
268  2.67  0.  0.
269  2.68  0.  0.
270  2.69  0.  0.
271  2.70  0.  0.
272  2.71  0.  0.
273  2.72  0.  0.
274  2.73  0.  0.
275  2.74  0.  0.
276  2.75  0.  0.
277  2.76  0.  0.
278  2.77  0.  0.
279  2.78  0.  0.
280  2.79  0.  0.
281  2.80  0.  0.
282  2.81  0.  0.
283  2.82  0.  0.
284  2.83  0.  0.
285  2.84  0.  0.
286  2.85  0.  0.
287  2.86  0.  0.
288  2.87  0.  0.
289  2.88  0.  0.
290  2.89  0.  0.
291  2.90  0.  0.
292  2.91  0.  0.
293  2.92  0.  0.
294  2.93  0.  0.
295  2.94  0.  0.
296  2.95  0.  0.
297  2.96  0.  0.
298  2.97  0.  0.
299  2.98  0.  0.
300  2.99  0.  0.
301  3.00  0.  0.
302  3.01  0.  0.
303  3.02  0.  0.
304  3.03  0.  0.
305  3.04  0.  0.
306  3.05  0.  0.
307  3.06  0.  0.
308  3.07  0.  0.
309  3.08  0.  0.
310  3.09  0.  0.
311  3.10  0.  0.
312  3.11  0.  0.
313  3.12  0.  0.
314  3.13  0.  0.
315  3.14  0.  0.
316  3.15  0.  0.
317  3.16  0.  0.
318  3.17  0.  0.
319  3.18  0.  0.
320  3.19  0.  0.
321  3.20  0.  0.
322  3.21  0.  0.
323  3.22  0.  0.
324  3.23  0.  0.
325  3.24  0.  0.
326  3.25  0.  0.
327  3.26  0.  0.
328  3.27  0.  0.
329  3.28  0.  0.
330  3.29  0.  0.
331  3.30  0.  0.
332  3.31  0.  0.
333  3.32  0.  0.
334  3.33  0.  0.
335  3.34  0.  0.
336  3.35  0.  0.
337  3.36  0.  0.
338  3.37  0.  0.
339  3.38  0.  0.
340  3.39  0.  0.
341  3.40  0.  0.
342  3.41  0.  0.
343  3.42  0.  0.
344  3.43  0.  0.
345  3.44  0.  0.
346  3.45  0.  0.
347  3.46  0.  0.
348  3.47  0.  0.
349  3.48  0.  0.
350  3.49  0.  0.
351  3.50  0.  0.
352  3.51  0.  0.
353  3.52  0.  0.
354  3.53  0.  0.
355  3.54  0.  0.
356  3.55  0.  0.
357  3.56  0.  0.
358  3.57  0.  0.
359  3.58  0.  0.
360  3.59  0.  0.
361  3.60  0.  0.
362  3.61  0.  0.
363  3.62  0.  0.
364  3.63  0.  0.
365  3.64  0.  0.
366  3.65  0.  0.
367  3.66  0.  0.
368  3.67  0.  0.
369  3.68  0.  0.
370  3.69  0.  0.
371  3.70  0.  0.
372  3.71  0.  0.
373  3.72  0.  0.
374  3.73  0.  0.
375  3.74  0.  0.
376  3.75  0.  0.
377  3.76  0.  0.
378  3.77  0.  0.
379  3.78  0.  0.
380  3.79  0.  0.
381  3.80  0.  0.
382  3.81  0.  0.
383  3.82  0.  0.
384  3.83  0.  0.
385  3.84  0.  0.
386  3.85  0.  0.
387  3.86  0.  0.
388  3.87  0.  0.
389  3.88  0.  0.
390  3.89  0.  0.
391  3.90  0.  0.
392  3.91  0.  0.
393  3.92  0.  0.
394  3.93  0.  0.
395  3.94  0.  0.
396  3.95  0.  0.
397  3.96  0.  0.
398  3.97  0.  0.
399  3.98  0.  0.
400  3.99  0.  0.
4
1  0.0000000000000E+00 -1.2847432733905E+01
2  1.0000000000000E-02 -1.2846855491220E+01
3  2.0000000000000E-02 -1.2845131891395E+01
4  3.0000000000000E-02 -1.2842287234392E+01
5  4.0000000000000E-02 -1.2838361657036E+01
6  5.0000000000000E-02 -1.2833407773949E+01
7  6.0000000000000E-02 -1.2827487493402E+01
8  7.0000000000000E-02 -1.2820668422518E+01