<UPF version="2.0.1">
<PP_INFO>

This pseudopotential file has been produced using the code
ONCVPSP  (Optimized Norm-Conservinng Vanderbilt PSeudopotential)
scalar-relativistic version 4.0.1 06/20/2107 by D. R. Hamann
The code is available through a link at URL www.mat-simresearch.com.
Documentation with the package provides a full discription of the
input data below.


While it is not required under the terms of the GNU GPL, it is
suggested that you cite D. R. Hamann, Phys. Rev. B 88, 085117 (2013)
in any publication using these pseudopotentials.

<PP_INPUTFILE>
# ATOM AND REFERENCE CONFIGURATION
# atsym  z   nc   nv     iexc    psfile
Ne 10.00    1    2       4      both
#
#   n    l    f        energy (Ha)
1    0    2.00
2    0    2.00
2    1    6.00
#
# PSEUDOPOTENTIAL AND OPTIMIZATION
# lmax
1
#
#   l,   rc,      ep,       ncon, nbas, qcut
0   1.30000   0.00000    4    7   8.00000
1   1.70000   0.00000    4    7   8.50000
#
# LOCAL POTENTIAL
# lloc, lpopt,  rc(5),   dvloc0
4    5   1.30000      0.00000
#
# VANDERBILT-KLEINMAN-BYLANDER PROJECTORs
# l, nproj, debl
0    2   1.50000
1    2   1.50000
#
# MODEL CORE CHARGE
# icmod, fcfact, rcfact
3   2.50000   1.85000
#
# LOG DERIVATIVE ANALYSIS
# epsh1, epsh2, depsh
-12.00   12.00    0.02
#
# OUTPUT GRID
# rlmax, drl
4.00    0.01
#
# TEST CONFIGURATIONS
# ncnf
0
# nvcnf
#   n    l    f
</PP_INPUTFILE>
</PP_INFO>
<!--                               -->
<!-- END OF HUMAN READABLE SECTION -->
<!--                               -->
<PP_HEADER
generated="Generated using ONCVPSP code by D. R. Hamann"
author="anonymous"
date="220429"
comment=""
element="Ne"
pseudo_type="NC"
relativistic="scalar"
is_ultrasoft="F"
is_paw="F"
is_coulomb="F"
has_so="F"
has_wfc="F"
has_gipaw="F"
core_correction="T"
functional="PBE"
z_valence="    8.00"
total_psenergy="  -6.71154757184E+01"
rho_cutoff="   7.53000000000E+00"
l_max="1"
l_local="-1"
mesh_size="   754"
number_of_wfc="2"
number_of_proj="4"/>
<PP_MESH>
<PP_R type="real"  size=" 754" columns="8">
0.0000    0.0100    0.0200    0.0300    0.0400    0.0500    0.0600    0.0700
0.0800    0.0900    0.1000    0.1100    0.1200    0.1300    0.1400    0.1500
0.1600    0.1700    0.1800    0.1900    0.2000    0.2100    0.2200    0.2300
0.2400    0.2500    0.2600    0.2700    0.2800    0.2900    0.3000    0.3100
0.3200    0.3300    0.3400    0.3500    0.3600    0.3700    0.3800    0.3900
0.4000    0.4100    0.4200    0.4300    0.4400    0.4500    0.4600    0.4700
0.4800    0.4900    0.5000    0.5100    0.5200    0.5300    0.5400    0.5500
0.5600    0.5700    0.5800    0.5900    0.6000    0.6100    0.6200    0.6300
0.6400    0.6500    0.6600    0.6700    0.6800    0.6900    0.7000    0.7100
0.7200    0.7300    0.7400    0.7500    0.7600    0.7700    0.7800    0.7900
0.8000    0.8100    0.8200    0.8300    0.8400    0.8500    0.8600    0.8700
0.8800    0.8900    0.9000    0.9100    0.9200    0.9300    0.9400    0.9500
0.9600    0.9700    0.9800    0.9900    1.0000    1.0100    1.0200    1.0300
1.0400    1.0500    1.0600    1.0700    1.0800    1.0900    1.1000    1.1100
1.1200    1.1300    1.1400    1.1500    1.1600    1.1700    1.1800    1.1900
1.2000    1.2100    1.2200    1.2300    1.2400    1.2500    1.2600    1.2700
1.2800    1.2900    1.3000    1.3100    1.3200    1.3300    1.3400    1.3500
1.3600    1.3700    1.3800    1.3900    1.4000    1.4100    1.4200    1.4300
1.4400    1.4500    1.4600    1.4700    1.4800    1.4900    1.5000    1.5100
1.5200    1.5300    1.5400    1.5500    1.5600    1.5700    1.5800    1.5900
1.6000    1.6100    1.6200    1.6300    1.6400    1.6500    1.6600    1.6700
1.6800    1.6900    1.7000    1.7100    1.7200    1.7300    1.7400    1.7500
1.7600    1.7700    1.7800    1.7900    1.8000    1.8100    1.8200    1.8300
1.8400    1.8500    1.8600    1.8700    1.8800    1.8900    1.9000    1.9100
1.9200    1.9300    1.9400    1.9500    1.9600    1.9700    1.9800    1.9900
2.0000    2.0100    2.0200    2.0300    2.0400    2.0500    2.0600    2.0700
2.0800    2.0900    2.1000    2.1100    2.1200    2.1300    2.1400    2.1500
2.1600    2.1700    2.1800    2.1900    2.2000    2.2100    2.2200    2.2300
2.2400    2.2500    2.2600    2.2700    2.2800    2.2900    2.3000    2.3100
2.3200    2.3300    2.3400    2.3500    2.3600    2.3700    2.3800    2.3900
2.4000    2.4100    2.4200    2.4300    2.4400    2.4500    2.4600    2.4700
2.4800    2.4900    2.5000    2.5100    2.5200    2.5300    2.5400    2.5500
2.5600    2.5700    2.5800    2.5900    2.6000    2.6100    2.6200    2.6300
2.6400    2.6500    2.6600    2.6700    2.6800    2.6900    2.7000    2.7100
2.7200    2.7300    2.7400    2.7500    2.7600    2.7700    2.7800    2.7900
2.8000    2.8100    2.8200    2.8300    2.8400    2.8500    2.8600    2.8700
2.8800    2.8900    2.9000    2.9100    2.9200    2.9300    2.9400    2.9500
2.9600    2.9700    2.9800    2.9900    3.0000    3.0100    3.0200    3.0300
3.0400    3.0500    3.0600    3.0700    3.0800    3.0900    3.1000    3.1100
3.1200    3.1300    3.1400    3.1500    3.1600    3.1700    3.1800    3.1900
3.2000    3.2100    3.2200    3.2300    3.2400    3.2500    3.2600    3.2700
3.2800    3.2900    3.3000    3.3100    3.3200    3.3300    3.3400    3.3500
3.3600    3.3700    3.3800    3.3900    3.4000    3.4100    3.4200    3.4300
3.4400    3.4500    3.4600    3.4700    3.4800    3.4900    3.5000    3.5100
3.5200    3.5300    3.5400    3.5500    3.5600    3.5700    3.5800    3.5900
3.6000    3.6100    3.6200    3.6300    3.6400    3.6500    3.6600    3.6700
3.6800    3.6900    3.7000    3.7100    3.7200    3.7300    3.7400    3.7500
3.7600    3.7700    3.7800    3.7900    3.8000    3.8100    3.8200    3.8300
3.8400    3.8500    3.8600    3.8700    3.8800    3.8900    3.9000    3.9100
3.9200    3.9300    3.9400    3.9500    3.9600    3.9700    3.9800    3.9900
4.0000    4.0100    4.0200    4.0300    4.0400    4.0500    4.0600    4.0700
4.0800    4.0900    4.1000    4.1100    4.1200    4.1300    4.1400    4.1500
4.1600    4.1700    4.1800    4.1900    4.2000    4.2100    4.2200    4.2300
4.2400    4.2500    4.2600    4.2700    4.2800    4.2900    4.3000    4.3100
4.3200    4.3300    4.3400    4.3500    4.3600    4.3700    4.3800    4.3900
4.4000    4.4100    4.4200    4.4300    4.4400    4.4500    4.4600    4.4700
4.4800    4.4900    4.5000    4.5100    4.5200    4.5300    4.5400    4.5500
4.5600    4.5700    4.5800    4.5900    4.6000    4.6100    4.6200    4.6300
4.6400    4.6500    4.6600    4.6700    4.6800    4.6900    4.7000    4.7100
4.7200    4.7300    4.7400    4.7500    4.7600    4.7700    4.7800    4.7900
4.8000    4.8100    4.8200    4.8300    4.8400    4.8500    4.8600    4.8700
4.8800    4.8900    4.9000    4.9100    4.9200    4.9300    4.9400    4.9500
4.9600    4.9700    4.9800    4.9900    5.0000    5.0100    5.0200    5.0300
5.0400    5.0500    5.0600    5.0700    5.0800    5.0900    5.1000    5.1100
5.1200    5.1300    5.1400    5.1500    5.1600    5.1700    5.1800    5.1900
5.2000    5.2100    5.2200    5.2300    5.2400    5.2500    5.2600    5.2700
5.2800    5.2900    5.3000    5.3100    5.3200    5.3300    5.3400    5.3500
5.3600    5.3700    5.3800    5.3900    5.4000    5.4100    5.4200    5.4300
5.4400    5.4500    5.4600    5.4700    5.4800    5.4900    5.5000    5.5100
5.5200    5.5300    5.5400    5.5500    5.5600    5.5700    5.5800    5.5900
5.6000    5.6100    5.6200    5.6300    5.6400    5.6500    5.6600    5.6700
5.6800    5.6900    5.7000    5.7100    5.7200    5.7300    5.7400    5.7500
5.7600    5.7700    5.7800    5.7900    5.8000    5.8100    5.8200    5.8300
5.8400    5.8500    5.8600    5.8700    5.8800    5.8900    5.9000    5.9100
5.9200    5.9300    5.9400    5.9500    5.9600    5.9700    5.9800    5.9900
6.0000    6.0100    6.0200    6.0300    6.0400    6.0500    6.0600    6.0700
6.0800    6.0900    6.1000    6.1100    6.1200    6.1300    6.1400    6.1500
6.1600    6.1700    6.1800    6.1900    6.2000    6.2100    6.2200    6.2300
6.2400    6.2500    6.2600    6.2700    6.2800    6.2900    6.3000    6.3100
6.3200    6.3300    6.3400    6.3500    6.3600    6.3700    6.3800    6.3900
6.4000    6.4100    6.4200    6.4300    6.4400    6.4500    6.4600    6.4700
6.4800    6.4900    6.5000    6.5100    6.5200    6.5300    6.5400    6.5500
6.5600    6.5700    6.5800    6.5900    6.6000    6.6100    6.6200    6.6300
6.6400    6.6500    6.6600    6.6700    6.6800    6.6900    6.7000    6.7100
6.7200    6.7300    6.7400    6.7500    6.7600    6.7700    6.7800    6.7900
6.8000    6.8100    6.8200    6.8300    6.8400    6.8500    6.8600    6.8700
6.8800    6.8900    6.9000    6.9100    6.9200    6.9300    6.9400    6.9500
6.9600    6.9700    6.9800    6.9900    7.0000    7.0100    7.0200    7.0300
7.0400    7.0500    7.0600    7.0700    7.0800    7.0900    7.1000    7.1100
7.1200    7.1300    7.1400    7.1500    7.1600    7.1700    7.1800    7.1900
7.2000    7.2100    7.2200    7.2300    7.2400    7.2500    7.2600    7.2700
7.2800    7.2900    7.3000    7.3100    7.3200    7.3300    7.3400    7.3500
7.3600    7.3700    7.3800    7.3900    7.4000    7.4100    7.4200    7.4300
7.4400    7.4500    7.4600    7.4700    7.4800    7.4900    7.5000    7.5100
7.5200    7.5300
</PP_R>
<PP_RAB type="real"  size=" 754" columns="8">
0.0100    0.0100    0.0100    0.0100    0.0100    0.0100    0.0100    0.0100
0.0100    0.0100    0.0100    0.0100    0.0100    0.0100    0.0100    0.0100
0.0100    0.0100    0.0100    0.0100    0.0100    0.0100    0.0100    0.0100
0.0100    0.0100    0.0100    0.0100    0.0100    0.0100    0.0100    0.0100
0.0100    0.0100    0.0100    0.0100    0.0100    0.0100    0.0100    0.0100
0.0100    0.0100    0.0100    0.0100    0.0100    0.0100    0.0100    0.0100
0.0100    0.0100    0.0100    0.0100    0.0100    0.0100    0.0100    0.0100
0.0100    0.0100    0.0100    0.0100    0.0100    0.0100    0.0100    0.0100
0.0100    0.0100    0.0100    0.0100    0.0100    0.0100    0.0100    0.0100
0.0100    0.0100    0.0100    0.0100    0.0100    0.0100    0.0100    0.0100
0.0100    0.0100    0.0100    0.0100    0.0100    0.0100    0.0100    0.0100
0.0100    0.0100    0.0100    0.0100    0.0100    0.0100    0.0100    0.0100
0.0100    0.0100    0.0100    0.0100    0.0100    0.0100    0.0100    0.0100
0.0100    0.0100    0.0100    0.0100    0.0100    0.0100    0.0100    0.0100
0.0100    0.0100    0.0100    0.0100    0.0100    0.0100    0.0100    0.0100
0.0100    0.0100    0.0100    0.0100    0.0100    0.0100    0.0100    0.0100
0.0100    0.0100    0.0100    0.0100    0.0100    0.0100    0.0100    0.0100
0.0100    0.0100    0.0100    0.0100    0.0100    0.0100    0.0100    0.0100
0.0100    0.0100    0.0100    0.0100    0.0100    0.0100    0.0100    0.0100
0.0100    0.0100    0.0100    0.0100    0.0100    0.0100    0.0100    0.0100
0.0100    0.0100    0.0100    0.0100    0.0100    0.0100    0.0100    0.0100
0.0100    0.0100    0.0100    0.0100    0.0100    0.0100    0.0100    0.0100
0.0100    0.0100    0.0100    0.0100    0.0100    0.0100    0.0100    0.0100
0.0100    0.0100    0.0100    0.0100    0.0100    0.0100    0.0100    0.0100
0.0100    0.0100    0.0100    0.0100    0.0100    0.0100    0.0100    0.0100
0.0100    0.0100    0.0100    0.0100    0.0100    0.0100    0.0100    0.0100
0.0100    0.0100    0.0100    0.0100    0.0100    0.0100    0.0100    0.0100
0.0100    0.0100    0.0100    0.0100    0.0100    0.0100    0.0100    0.0100
0.0100    0.0100    0.0100    0.0100    0.0100    0.0100    0.0100    0.0100
0.0100    0.0100    0.0100    0.0100    0.0100    0.0100    0.0100    0.0100
0.0100    0.0100    0.0100    0.0100    0.0100    0.0100    0.0100    0.0100
0.0100    0.0100    0.0100    0.0100    0.0100    0.0100    0.0100    0.0100
0.0100    0.0100    0.0100    0.0100    0.0100    0.0100    0.0100    0.0100
0.0100    0.0100    0.0100    0.0100    0.0100    0.0100    0.0100    0.0100
0.0100    0.0100    0.0100    0.0100    0.0100    0.0100    0.0100    0.0100
0.0100    0.0100    0.0100    0.0100    0.0100    0.0100    0.0100    0.0100
0.0100    0.0100    0.0100    0.0100    0.0100    0.0100    0.0100    0.0100
0.0100    0.0100    0.0100    0.0100    0.0100    0.0100    0.0100    0.0100
0.0100    0.0100    0.0100    0.0100    0.0100    0.0100    0.0100    0.0100
0.0100    0.0100    0.0100    0.0100    0.0100    0.0100    0.0100    0.0100
0.0100    0.0100    0.0100    0.0100    0.0100    0.0100    0.0100    0.0100
0.0100    0.0100    0.0100    0.0100    0.0100    0.0100    0.0100    0.0100
0.0100    0.0100    0.0100    0.0100    0.0100    0.0100    0.0100    0.0100
0.0100    0.0100    0.0100    0.0100    0.0100    0.0100    0.0100    0.0100
0.0100    0.0100    0.0100    0.0100    0.0100    0.0100    0.0100    0.0100
0.0100    0.0100    0.0100    0.0100    0.0100    0.0100    0.0100    0.0100
0.0100    0.0100    0.0100    0.0100    0.0100    0.0100    0.0100    0.0100
0.0100    0.0100    0.0100    0.0100    0.0100    0.0100    0.0100    0.0100
0.0100    0.0100    0.0100    0.0100    0.0100    0.0100    0.0100    0.0100
0.0100    0.0100    0.0100    0.0100    0.0100    0.0100    0.0100    0.0100
0.0100    0.0100    0.0100    0.0100    0.0100    0.0100    0.0100    0.0100
0.0100    0.0100    0.0100    0.0100    0.0100    0.0100    0.0100    0.0100
0.0100    0.0100    0.0100    0.0100    0.0100    0.0100    0.0100    0.0100
0.0100    0.0100    0.0100    0.0100    0.0100    0.0100    0.0100    0.0100
0.0100    0.0100    0.0100    0.0100    0.0100    0.0100    0.0100    0.0100
0.0100    0.0100    0.0100    0.0100    0.0100    0.0100    0.0100    0.0100
0.0100    0.0100    0.0100    0.0100    0.0100    0.0100    0.0100    0.0100
0.0100    0.0100    0.0100    0.0100    0.0100    0.0100    0.0100    0.0100
0.0100    0.0100    0.0100    0.0100    0.0100    0.0100    0.0100    0.0100
0.0100    0.0100    0.0100    0.0100    0.0100    0.0100    0.0100    0.0100
0.0100    0.0100    0.0100    0.0100    0.0100    0.0100    0.0100    0.0100
0.0100    0.0100    0.0100    0.0100    0.0100    0.0100    0.0100    0.0100
0.0100    0.0100    0.0100    0.0100    0.0100    0.0100    0.0100    0.0100
0.0100    0.0100    0.0100    0.0100    0.0100    0.0100    0.0100    0.0100
0.0100    0.0100    0.0100    0.0100    0.0100    0.0100    0.0100    0.0100
0.0100    0.0100    0.0100    0.0100    0.0100    0.0100    0.0100    0.0100
0.0100    0.0100    0.0100    0.0100    0.0100    0.0100    0.0100    0.0100
0.0100    0.0100    0.0100    0.0100    0.0100    0.0100    0.0100    0.0100
0.0100    0.0100    0.0100    0.0100    0.0100    0.0100    0.0100    0.0100
0.0100    0.0100    0.0100    0.0100    0.0100    0.0100    0.0100    0.0100
0.0100    0.0100    0.0100    0.0100    0.0100    0.0100    0.0100    0.0100
0.0100    0.0100    0.0100    0.0100    0.0100    0.0100    0.0100    0.0100
0.0100    0.0100    0.0100    0.0100    0.0100    0.0100    0.0100    0.0100
0.0100    0.0100    0.0100    0.0100    0.0100    0.0100    0.0100    0.0100
0.0100    0.0100    0.0100    0.0100    0.0100    0.0100    0.0100    0.0100
0.0100    0.0100    0.0100    0.0100    0.0100    0.0100    0.0100    0.0100
0.0100    0.0100    0.0100    0.0100    0.0100    0.0100    0.0100    0.0100
0.0100    0.0100    0.0100    0.0100    0.0100    0.0100    0.0100    0.0100
0.0100    0.0100    0.0100    0.0100    0.0100    0.0100    0.0100    0.0100
0.0100    0.0100    0.0100    0.0100    0.0100    0.0100    0.0100    0.0100
0.0100    0.0100    0.0100    0.0100    0.0100    0.0100    0.0100    0.0100
0.0100    0.0100    0.0100    0.0100    0.0100    0.0100    0.0100    0.0100
0.0100    0.0100    0.0100    0.0100    0.0100    0.0100    0.0100    0.0100
0.0100    0.0100    0.0100    0.0100    0.0100    0.0100    0.0100    0.0100
0.0100    0.0100    0.0100    0.0100    0.0100    0.0100    0.0100    0.0100
0.0100    0.0100    0.0100    0.0100    0.0100    0.0100    0.0100    0.0100
0.0100    0.0100    0.0100    0.0100    0.0100    0.0100    0.0100    0.0100
0.0100    0.0100    0.0100    0.0100    0.0100    0.0100    0.0100    0.0100
0.0100    0.0100    0.0100    0.0100    0.0100    0.0100    0.0100    0.0100
0.0100    0.0100    0.0100    0.0100    0.0100    0.0100    0.0100    0.0100
0.0100    0.0100    0.0100    0.0100    0.0100    0.0100    0.0100    0.0100
0.0100    0.0100    0.0100    0.0100    0.0100    0.0100    0.0100    0.0100
0.0100    0.0100    0.0100    0.0100    0.0100    0.0100    0.0100    0.0100
0.0100    0.0100    0.0100    0.0100    0.0100    0.0100    0.0100    0.0100
0.0100    0.0100
</PP_RAB>
</PP_MESH>
<PP_LOCAL type="real"  size=" 754" columns="4">
-2.5694865468E+01   -2.5693710982E+01   -2.5690263783E+01   -2.5684574469E+01
-2.5676723314E+01   -2.5666815548E+01   -2.5654974987E+01   -2.5641336845E+01
-2.5626040284E+01   -2.5609221218E+01   -2.5591005811E+01   -2.5571504966E+01
-2.5550810000E+01   -2.5528989547E+01   -2.5506087664E+01   -2.5482123015E+01
-2.5457088967E+01   -2.5430954422E+01   -2.5403665204E+01   -2.5375145820E+01
-2.5345301481E+01   -2.5314020232E+01   -2.5281175149E+01   -2.5246626508E+01
-2.5210223929E+01   -2.5171808456E+01   -2.5131214594E+01   -2.5088272313E+01
-2.5042809045E+01   -2.4994651704E+01   -2.4943628765E+01   -2.4889572413E+01
-2.4832320800E+01   -2.4771720404E+01   -2.4707628475E+01   -2.4639915534E+01
-2.4568467854E+01   -2.4493189826E+01   -2.4414006096E+01   -2.4330863326E+01
-2.4243731442E+01   -2.4152604244E+01   -2.4057499281E+01   -2.3958456955E+01
-2.3855538873E+01   -2.3748825545E+01   -2.3638413596E+01   -2.3524412675E+01
-2.3406942323E+01   -2.3286128996E+01   -2.3162103459E+01   -2.3034998679E+01
-2.2904948303E+01   -2.2772085745E+01   -2.2636543821E+01   -2.2498454873E+01
-2.2357951242E+01   -2.2215165983E+01   -2.2070233674E+01   -2.1923291208E+01
-2.1774478451E+01   -2.1623938694E+01   -2.1471818821E+01   -2.1318269169E+01
-2.1163443073E+01   -2.1007496108E+01   -2.0850585069E+01   -2.0692866763E+01
-2.0534496661E+01   -2.0375627511E+01   -2.0216407975E+01   -2.0056981360E+01
-1.9897484504E+01   -1.9738046856E+01   -1.9578789776E+01   -1.9419826057E+01
-1.9261259681E+01   -1.9103185770E+01   -1.8945690730E+01   -1.8788852541E+01
-1.8632741173E+01   -1.8477419088E+01   -1.8322941814E+01   -1.8169358541E+01
-1.8016712743E+01   -1.7865042786E+01   -1.7714382531E+01   -1.7564761893E+01
-1.7416207376E+01   -1.7268742563E+01   -1.7122388561E+01   -1.6977164406E+01
-1.6833087418E+01   -1.6690173516E+01   -1.6548437487E+01   -1.6407893222E+01
-1.6268553902E+01   -1.6130432160E+01   -1.5993540203E+01   -1.5857889901E+01
-1.5723492859E+01   -1.5590360447E+01   -1.5458503827E+01   -1.5327933942E+01
-1.5198661498E+01   -1.5070696932E+01   -1.4944050362E+01   -1.4818731531E+01
-1.4694749746E+01   -1.4572113804E+01   -1.4450831921E+01   -1.4330911655E+01
-1.4212359830E+01   -1.4095182453E+01   -1.3979384640E+01   -1.3864970536E+01
-1.3751943237E+01   -1.3640304713E+01   -1.3530055732E+01   -1.3421195782E+01
-1.3313722998E+01   -1.3207634083E+01   -1.3102924238E+01   -1.2999587084E+01
-1.2897614590E+01   -1.2796996979E+01   -1.2697722697E+01   -1.2599778378E+01
-1.2503148716E+01   -1.2407816423E+01   -1.2313762106E+01   -1.2220966513E+01
-1.2129415672E+01   -1.2039089134E+01   -1.1949964958E+01   -1.1862022430E+01
-1.1775241747E+01   -1.1689603984E+01   -1.1605091053E+01   -1.1521685663E+01
-1.1439371279E+01   -1.1358132084E+01   -1.1277952931E+01   -1.1198819303E+01
-1.1120717264E+01   -1.1043633409E+01   -1.0967554813E+01   -1.0892468976E+01
-1.0818363761E+01   -1.0745227335E+01   -1.0673048106E+01   -1.0601814652E+01
-1.0531515654E+01   -1.0462139824E+01   -1.0393675832E+01   -1.0326112234E+01
-1.0259437397E+01   -1.0193639428E+01   -1.0128706106E+01   -1.0064624812E+01
-1.0001382472E+01   -9.9389655000E+00   -9.8773597514E+00   -9.8165504837E+00
-9.7565223329E+00   -9.6972593081E+00   -9.6387447851E+00   -9.5809615239E+00
-9.5238916804E+00   -9.4675168510E+00   -9.4118184161E+00   -9.3567774459E+00
-9.3023768757E+00   -9.2486052132E+00   -9.1954516169E+00   -9.1429055015E+00
-9.0909565108E+00   -9.0395945240E+00   -8.9888096476E+00   -8.9385922092E+00
-8.8889327511E+00   -8.8398220248E+00   -8.7912509853E+00   -8.7432107849E+00
-8.6956927686E+00   -8.6486884682E+00   -8.6021895980E+00   -8.5561880493E+00
-8.5106758859E+00   -8.4656453398E+00   -8.4210888063E+00   -8.3769988402E+00
-8.3333681511E+00   -8.2901896001E+00   -8.2474561951E+00   -8.2051610878E+00
-8.1632975694E+00   -8.1218590674E+00   -8.0808391421E+00   -8.0402314833E+00
-8.0000299070E+00   -7.9602283521E+00   -7.9208208777E+00   -7.8818016599E+00
-7.8431649892E+00   -7.8049052664E+00   -7.7670170036E+00   -7.7294948171E+00
-7.6923334244E+00   -7.6555276492E+00   -7.6190724107E+00   -7.5829627245E+00
-7.5471937010E+00   -7.5117605420E+00   -7.4766585391E+00   -7.4418830716E+00
-7.4074296042E+00   -7.3732936853E+00   -7.3394709449E+00   -7.3059570929E+00
-7.2727479172E+00   -7.2398392819E+00   -7.2072271256E+00   -7.1749074598E+00
-7.1428763672E+00   -7.1111300002E+00   -7.0796645791E+00   -7.0484763911E+00
-7.0175617882E+00   -6.9869171865E+00   -6.9565390640E+00   -6.9264239601E+00
-6.8965684736E+00   -6.8669692618E+00   -6.8376230390E+00   -6.8085265757E+00
-6.7796766968E+00   -6.7510702810E+00   -6.7227042595E+00   -6.6945756146E+00
-6.6666813792E+00   -6.6390186352E+00   -6.6115845130E+00   -6.5843761899E+00
-6.5573908897E+00   -6.5306258815E+00   -6.5040784788E+00   -6.4777460385E+00
-6.4516259603E+00   -6.4257156855E+00   -6.4000126964E+00   -6.3745145156E+00
-6.3492187046E+00   -6.3241228640E+00   -6.2992246316E+00   -6.2745216828E+00
-6.2500117290E+00   -6.2256925173E+00   -6.2015618297E+00   -6.1776174824E+00
-6.1538573254E+00   -6.1302792414E+00   -6.1068811457E+00   -6.0836609850E+00
-6.0606167374E+00   -6.0377464112E+00   -6.0150480450E+00   -5.9925197066E+00
-5.9701594925E+00   -5.9479655278E+00   -5.9259359652E+00   -5.9040689847E+00
-5.8823627930E+00   -5.8608156233E+00   -5.8394257342E+00   -5.8181914101E+00
-5.7971109598E+00   -5.7761827170E+00   -5.7554050389E+00   -5.7347763065E+00
-5.7142949241E+00   -5.6939593183E+00   -5.6737679383E+00   -5.6537192552E+00
-5.6338117616E+00   -5.6140439712E+00   -5.5944144185E+00   -5.5749216585E+00
-5.5555642663E+00   -5.5363408366E+00   -5.5172499835E+00   -5.4982903402E+00
-5.4794605587E+00   -5.4607593091E+00   -5.4421852801E+00   -5.4237371777E+00
-5.4054137256E+00   -5.3872136646E+00   -5.3691357527E+00   -5.3511787640E+00
-5.3333414895E+00   -5.3156227358E+00   -5.2980213256E+00   -5.2805360970E+00
-5.2631659034E+00   -5.2459096134E+00   -5.2287661102E+00   -5.2117342916E+00
-5.1948130697E+00   -5.1780013708E+00   -5.1612981349E+00   -5.1447023158E+00
-5.1282128805E+00   -5.1118288094E+00   -5.0955490957E+00   -5.0793727456E+00
-5.0632987778E+00   -5.0473262233E+00   -5.0314541253E+00   -5.0156815392E+00
-5.0000075319E+00   -4.9844311821E+00   -4.9689515800E+00   -4.9535678269E+00
-4.9382790354E+00   -4.9230843288E+00   -4.9079828413E+00   -4.8929737178E+00
-4.8780561133E+00   -4.8632291933E+00   -4.8484921335E+00   -4.8338441194E+00
-4.8192843462E+00   -4.8048120191E+00   -4.7904263526E+00   -4.7761265706E+00
-4.7619119062E+00   -4.7477816018E+00   -4.7337349086E+00   -4.7197710866E+00
-4.7058894046E+00   -4.6920891399E+00   -4.6783695784E+00   -4.6647300142E+00
-4.6511697497E+00   -4.6376880952E+00   -4.6242843691E+00   -4.6109578978E+00
-4.5977080153E+00   -4.5845340631E+00   -4.5714353904E+00   -4.5584113538E+00
-4.5454613173E+00   -4.5325846518E+00   -4.5197807357E+00   -4.5070489541E+00
-4.4943886991E+00   -4.4817993697E+00   -4.4692803716E+00   -4.4568311169E+00
-4.4444510246E+00   -4.4321395197E+00   -4.4198960341E+00   -4.4077200054E+00
-4.3956108777E+00   -4.3835681012E+00   -4.3715911320E+00   -4.3596794321E+00
-4.3478324695E+00   -4.3360497179E+00   -4.3243306566E+00   -4.3126747705E+00
-4.3010815503E+00   -4.2895504920E+00   -4.2780810968E+00   -4.2666728715E+00
-4.2553253280E+00   -4.2440379834E+00   -4.2328103601E+00   -4.2216419852E+00
-4.2105323910E+00   -4.1994811147E+00   -4.1884876982E+00   -4.1775516884E+00
-4.1666726368E+00   -4.1558500996E+00   -4.1450836374E+00   -4.1343728157E+00
-4.1237172043E+00   -4.1131163772E+00   -4.1025699132E+00   -4.0920773951E+00
-4.0816384101E+00   -4.0712525495E+00   -4.0609194088E+00   -4.0506385877E+00
-4.0404096897E+00   -4.0302323225E+00   -4.0201060977E+00   -4.0100306307E+00
-4.0000055410E+00   -3.9900304515E+00   -3.9801049892E+00   -3.9702287846E+00
-3.9604014719E+00   -3.9506226891E+00   -3.9408920774E+00   -3.9312092819E+00
-3.9215739509E+00   -3.9119857364E+00   -3.9024442934E+00   -3.8929492808E+00
-3.8835003603E+00   -3.8740971971E+00   -3.8647394598E+00   -3.8554268198E+00
-3.8461589521E+00   -3.8369355345E+00   -3.8277562479E+00   -3.8186207765E+00
-3.8095288072E+00   -3.8004800300E+00   -3.7914741379E+00   -3.7825108269E+00
-3.7735897955E+00   -3.7647107453E+00   -3.7558733807E+00   -3.7470774089E+00
-3.7383225396E+00   -3.7296084855E+00   -3.7209349618E+00   -3.7123016865E+00
-3.7037083799E+00   -3.6951547652E+00   -3.6866405680E+00   -3.6781655165E+00
-3.6697293413E+00   -3.6613317756E+00   -3.6529725549E+00   -3.6446514171E+00
-3.6363681026E+00   -3.6281223541E+00   -3.6199139167E+00   -3.6117425376E+00
-3.6036079665E+00   -3.5955099552E+00   -3.5874482579E+00   -3.5794226307E+00
-3.5714328323E+00   -3.5634786230E+00   -3.5555597658E+00   -3.5476760255E+00
-3.5398271689E+00   -3.5320129651E+00   -3.5242331851E+00   -3.5164876019E+00
-3.5087759905E+00   -3.5010981280E+00   -3.4934537932E+00   -3.4858427671E+00
-3.4782648324E+00   -3.4707197737E+00   -3.4632073776E+00   -3.4557274325E+00
-3.4482797285E+00   -3.4408640577E+00   -3.4334802137E+00   -3.4261279922E+00
-3.4188071905E+00   -3.4115176075E+00   -3.4042590441E+00   -3.3970313025E+00
-3.3898341870E+00   -3.3826675033E+00   -3.3755310588E+00   -3.3684246624E+00
-3.3613481249E+00   -3.3543012584E+00   -3.3472838767E+00   -3.3402957951E+00
-3.3333368306E+00   -3.3264068015E+00   -3.3195055277E+00   -3.3126328306E+00
-3.3057885332E+00   -3.2989724596E+00   -3.2921844358E+00   -3.2854242888E+00
-3.2786918475E+00   -3.2719869416E+00   -3.2653094028E+00   -3.2586590637E+00
-3.2520357586E+00   -3.2454393229E+00   -3.2388695934E+00   -3.2323264083E+00
-3.2258096070E+00   -3.2193190304E+00   -3.2128545203E+00   -3.2064159201E+00
-3.2000030744E+00   -3.1936158288E+00   -3.1872540305E+00   -3.1809175276E+00
-3.1746061696E+00   -3.1683198071E+00   -3.1620582920E+00   -3.1558214771E+00
-3.1496092167E+00   -3.1434213659E+00   -3.1372577813E+00   -3.1311183203E+00
-3.1250028416E+00   -3.1189112050E+00   -3.1128432712E+00   -3.1067989023E+00
-3.1007779613E+00   -3.0947803121E+00   -3.0888058199E+00   -3.0828543508E+00
-3.0769257720E+00   -3.0710199517E+00   -3.0651367591E+00   -3.0592760644E+00
-3.0534377389E+00   -3.0476216546E+00   -3.0418276847E+00   -3.0360557034E+00
-3.0303055856E+00   -3.0245772075E+00   -3.0188704460E+00   -3.0131851788E+00
-3.0075212849E+00   -3.0018786440E+00   -2.9962571365E+00   -2.9906566441E+00
-2.9850770491E+00   -2.9795182347E+00   -2.9739800851E+00   -2.9684624853E+00
-2.9629653210E+00   -2.9574884790E+00   -2.9520318469E+00   -2.9465953128E+00
-2.9411787661E+00   -2.9357820966E+00   -2.9304051952E+00   -2.9250479534E+00
-2.9197102637E+00   -2.9143920191E+00   -2.9090931136E+00   -2.9038134420E+00
-2.8985528996E+00   -2.8933113828E+00   -2.8880887884E+00   -2.8828850143E+00
-2.8776999588E+00   -2.8725335211E+00   -2.8673856011E+00   -2.8622560996E+00
-2.8571449177E+00   -2.8520519575E+00   -2.8469771218E+00   -2.8419203139E+00
-2.8368814381E+00   -2.8318603990E+00   -2.8268571021E+00   -2.8218714536E+00
-2.8169033603E+00   -2.8119527295E+00   -2.8070194694E+00   -2.8021034887E+00
-2.7972046968E+00   -2.7923230036E+00   -2.7874583199E+00   -2.7826105569E+00
-2.7777796264E+00   -2.7729654410E+00   -2.7681679137E+00   -2.7633869582E+00
-2.7586224887E+00   -2.7538744203E+00   -2.7491426682E+00   -2.7444271487E+00
-2.7397277782E+00   -2.7350444740E+00   -2.7303771538E+00   -2.7257257359E+00
-2.7210901392E+00   -2.7164702831E+00   -2.7118660875E+00   -2.7072774731E+00
-2.7027043607E+00   -2.6981466720E+00   -2.6936043292E+00   -2.6890772547E+00
-2.6845653718E+00   -2.6800686042E+00   -2.6755868759E+00   -2.6711201117E+00
-2.6666682367E+00   -2.6622311767E+00   -2.6578088578E+00   -2.6534012066E+00
-2.6490081503E+00   -2.6446296166E+00   -2.6402655335E+00   -2.6359158297E+00
-2.6315804341E+00   -2.6272592763E+00   -2.6229522862E+00   -2.6186593944E+00
-2.6143805316E+00   -2.6101156293E+00   -2.6058646193E+00   -2.6016274336E+00
-2.5974040051E+00   -2.5931942669E+00   -2.5889981524E+00   -2.5848155957E+00
-2.5806465311E+00   -2.5764908935E+00   -2.5723486181E+00   -2.5682196406E+00
-2.5641038970E+00   -2.5600013239E+00   -2.5559118580E+00   -2.5518354367E+00
-2.5477719977E+00   -2.5437214790E+00   -2.5396838191E+00   -2.5356589570E+00
-2.5316468317E+00   -2.5276473831E+00   -2.5236605510E+00   -2.5196862759E+00
-2.5157244986E+00   -2.5117751601E+00   -2.5078382021E+00   -2.5039135663E+00
-2.5000011950E+00   -2.4961010309E+00   -2.4922130168E+00   -2.4883370962E+00
-2.4844732125E+00   -2.4806213100E+00   -2.4767813329E+00   -2.4729532258E+00
-2.4691369340E+00   -2.4653324027E+00   -2.4615395777E+00   -2.4577584051E+00
-2.4539888311E+00   -2.4502308026E+00   -2.4464842666E+00   -2.4427491704E+00
-2.4390254617E+00   -2.4353130885E+00   -2.4316119992E+00   -2.4279221423E+00
-2.4242434668E+00   -2.4205759220E+00   -2.4169194575E+00   -2.4132740230E+00
-2.4096395687E+00   -2.4060160452E+00   -2.4024034032E+00   -2.3988015937E+00
-2.3952105680E+00   -2.3916302780E+00   -2.3880606753E+00   -2.3845017124E+00
-2.3809533416E+00   -2.3774155158E+00   -2.3738881880E+00   -2.3703713116E+00
-2.3668648401E+00   -2.3633687276E+00   -2.3598829280E+00   -2.3564073960E+00
-2.3529420861E+00   -2.3494869534E+00   -2.3460419530E+00   -2.3426070406E+00