Cs    ONCVPSP-4.0.1  r_core=   2.26263   1.85729   2.00749   1.90227
55.0000      9.0000      220131    zatom,zion,pspd
8      11   3     4   600     0    pspcod,pspxc,lmax,lloc,mmax,r2well
5.99000000  5.00000000  0.00000000    rchrg fchrg qchrg
3     2     2     2     0    nproj
1     1           extension_switch
0                         8.9800242217803E+00  1.6216339407580E+00  2.1778505527249E-01
1  0.0000000000000E+00 -4.9169390781145E-11  1.1016003387265E-10 -1.8186935291098E-10
2  1.0000000000000E-02  3.0172545737173E-02 -8.9624550060199E-03  1.1629042233612E-02
3  2.0000000000000E-02  6.0318361250526E-02 -1.7881026619705E-02  2.3199766295780E-02
4  3.0000000000000E-02  9.0410867615060E-02 -2.6712190163095E-02  3.4654401933484E-02
5  4.0000000000000E-02  1.2042378703407E-01 -3.5413135060889E-02  4.5936269484378E-02
6  5.0000000000000E-02  1.5033128974238E-01 -4.3942113604496E-02  5.6990312102904E-02
7  6.0000000000000E-02  1.8010813655147E-01 -5.2258779849622E-02  6.7763612432581E-02
8  7.0000000000000E-02  2.0972981564147E-01 -6.0324515488041E-02  7.8205888753565E-02
9  8.0000000000000E-02  2.3917267225432E-01 -6.8102739644352E-02  8.8269965816408E-02
10  9.0000000000000E-02  2.6841403000281E-01 -7.5559199683857E-02  9.7912215795973E-02
11  1.0000000000000E-01  2.9743230258177E-01 -8.2662240278436E-02  1.0709296506437E-01
12  1.1000000000000E-01  3.2620709475005E-01 -8.9383048161216E-02  1.1577686278456E-01
13  1.2000000000000E-01  3.5471929154386E-01 -9.5695870206811E-02  1.2393320766477E-01
14  1.3000000000000E-01  3.8295113478343E-01 -1.0157820270100E-01  1.3153622958721E-01
15  1.4000000000000E-01  4.1088628604429E-01 -1.0701094990843E-01  1.3856532322535E-01
16  1.5000000000000E-01  4.3850987538216E-01 -1.1197855030988E-01  1.4500523119505E-01
17  1.6000000000000E-01  4.6580853522374E-01 -1.1646906915685E-01  1.5084617473603E-01
18  1.7000000000000E-01  4.9277041896567E-01 -1.2047425628156E-01  1.5608393039359E-01
19  1.8000000000000E-01  5.1938520395760E-01 -1.2398956839944E-01  1.6071985165728E-01
20  1.9000000000000E-01  5.4564407868382E-01 -1.2701415544998E-01  1.6476083501384E-01
21  2.0000000000000E-01  5.7153971409717E-01 -1.2955081083414E-01  1.6821923037813E-01
22  2.1000000000000E-01  5.9706621920183E-01 -1.3160588572353E-01  1.7111269637589E-01
23  2.2000000000000E-01  6.2221908112262E-01 -1.3318916793316E-01  1.7346400146183E-01
24  2.3000000000000E-01  6.4699509004027E-01 -1.3431372616403E-01  1.7530077235953E-01
25  2.4000000000000E-01  6.7139224951108E-01 -1.3499572073246E-01  1.7665519180441E-01
26  2.5000000000000E-01  6.9540967282539E-01 -1.3525418220548E-01  1.7756364805025E-01
27  2.6000000000000E-01  7.1904746619171E-01 -1.3511075965593E-01  1.7806633906296E-01
28  2.7000000000000E-01  7.4230659965934E-01 -1.3458944053113E-01  1.7820683476346E-01
29  2.8000000000000E-01  7.6518876681317E-01 -1.3371624439743E-01  1.7803160109749E-01
30  2.9000000000000E-01  7.8769623438736E-01 -1.3251889307272E-01  1.7758949009351E-01
31  3.0000000000000E-01  8.0983168304890E-01 -1.3102645989066E-01  1.7693120042037E-01
32  3.1000000000000E-01  8.3159804069828E-01 -1.2926900105296E-01  1.7610871327397E-01
33  3.2000000000000E-01  8.5299830971952E-01 -1.2727717221281E-01  1.7517470869442E-01
34  3.3000000000000E-01  8.7403538968699E-01 -1.2508183359898E-01  1.7418196765281E-01
35  3.4000000000000E-01  8.9471189709959E-01 -1.2271364712738E-01  1.7318276543275E-01
36  3.5000000000000E-01  9.1502998376442E-01 -1.2020266906048E-01  1.7222826197952E-01
37  3.6000000000000E-01  9.3499115549034E-01 -1.1757794185643E-01  1.7136789498059E-01
38  3.7000000000000E-01  9.5459609277818E-01 -1.1486708890701E-01  1.7064878149320E-01
39  3.8000000000000E-01  9.7384447520627E-01 -1.1209591588656E-01  1.7011513392758E-01
40  3.9000000000000E-01  9.9273481120886E-01 -1.0928802242956E-01  1.6980769614256E-01
41  4.0000000000000E-01  1.0112642749306E+00 -1.0646442781968E-01  1.6976320530782E-01
42  4.1000000000000E-01  1.0294285518109E+00 -1.0364321430559E-01  1.7001388503014E-01
43  4.2000000000000E-01  1.0472216945109E+00 -1.0083919156438E-01  1.7058697504155E-01
44  4.3000000000000E-01  1.0646359907387E+00 -9.8063585706227E-02  1.7150430249365E-01
45  4.4000000000000E-01  1.0816618444611E+00 -9.5323756060226E-02  1.7278189960696E-01
46  4.5000000000000E-01  1.0982876719079E+00 -9.2622942796875E-02  1.7442967207944E-01
47  4.6000000000000E-01  1.1144998136804E+00 -8.9960048235604E-02  1.7645112227958E-01
48  4.7000000000000E-01  1.1302824641711E+00 -8.7329454446134E-02  1.7884313081761E-01
49  4.8000000000000E-01  1.1456176193846E+00 -8.4720879498889E-02  1.8159579964049E-01
50  4.9000000000000E-01  1.1604850441225E+00 -8.2119274432002E-02  1.8469235929061E-01
51  5.0000000000000E-01  1.1748622593590E+00 -7.9504762705940E-02  1.8810914245748E-01
52  5.1000000000000E-01  1.1887245504902E+00 -7.6852623594520E-02  1.9181562539896E-01
53  5.2000000000000E-01  1.2020449969859E+00 -7.4133320626106E-02  1.9577453824198E-01
54  5.3000000000000E-01  1.2147945238157E+00 -7.1312575840206E-02  1.9994204458770E-01
55  5.4000000000000E-01  1.2269419748578E+00 -6.8351490266447E-02  2.0426799025363E-01
56  5.5000000000000E-01  1.2384542083280E+00 -6.5206710662613E-02  2.0869622037432E-01
57  5.6000000000000E-01  1.2492962141012E+00 -6.1830642179616E-02  2.1316496348549E-01
58  5.7000000000000E-01  1.2594312526184E+00 -5.8171706242853E-02  2.1760728060648E-01
59  5.8000000000000E-01  1.2688210149063E+00 -5.4174642566956E-02  2.2195157674560E-01
60  5.9000000000000E-01  1.2774258030610E+00 -4.9780853848396E-02  2.2612217166716E-01
61  6.0000000000000E-01  1.2852047303785E+00 -4.4928791316862E-02  2.3003992619816E-01
62  6.1000000000000E-01  1.2921159401511E+00 -3.9554378968654E-02  2.3362291980569E-01
63  6.2000000000000E-01  1.2981168419852E+00 -3.3591473963910E-02  2.3678717466705E-01
64  6.3000000000000E-01  1.3031643643449E+00 -2.6972360338710E-02  2.3944742096643E-01
65  6.4000000000000E-01  1.3072152218743E+00 -1.9628272872736E-02  2.4151789770920E-01
66  6.5000000000000E-01  1.3102261959176E+00 -1.1489947662037E-02  2.4291318293683E-01
67  6.6000000000000E-01  1.3121544265230E+00 -2.4881956764536E-03  2.4354904686237E-01
68  6.7000000000000E-01  1.3129577141019E+00  7.4455046594387E-03  2.4334332113740E-01
69  6.8000000000000E-01  1.3125948288060E+00  1.8378400044050E-02  2.4221677718924E-01
70  6.9000000000000E-01  1.3110258255925E+00  3.0375844400075E-02  2.4009400636818E-01
71  7.0000000000000E-01  1.3082123628682E+00  4.3500675025925E-02  2.3690429448094E-01
72  7.1000000000000E-01  1.3041180225370E+00  5.7812587443444E-02  2.3258248320168E-01
73  7.2000000000000E-01  1.2987086292240E+00  7.3367513683436E-02  2.2706981080784E-01
74  7.3000000000000E-01  1.2919525664164E+00  9.0217008802683E-02  2.2031472472095E-01
75  7.4000000000000E-01  1.2838210872397E+00  1.0840765044980E-01  2.1227365841457E-01
76  7.5000000000000E-01  1.2742886175866E+00  1.2798045627942E-01  2.0291176540364E-01
77  7.6000000000000E-01  1.2633330493294E+00  1.4897032396240E-01  1.9220360324088E-01
78  7.7000000000000E-01  1.2509360213747E+00  1.7140549845345E-01  1.8013376071127E-01
79  7.8000000000000E-01  1.2370831863701E+00  1.9530707104966E-01  1.6669742175258E-01
80  7.9000000000000E-01  1.2217644609311E+00  2.2068851461604E-01  1.5190086001178E-01
81  8.0000000000000E-01  1.2049742573377E+00  2.4755525915718E-01  1.3576185839265E-01
82  8.1000000000000E-01  1.1867116947453E+00  2.7590431168712E-01  1.1831004844176E-01
83  8.2000000000000E-01  1.1669807880636E+00  3.0572392408721E-01  9.9587164965119E-02
84  8.3000000000000E-01  1.1457906127807E+00  3.3699331235021E-01  7.9647211856278E-02
85  8.4000000000000E-01  1.1231554441497E+00  3.6968243028938E-01  5.8556535744071E-02
86  8.5000000000000E-01  1.0990948693044E+00  4.0375180044204E-01  3.6393804738310E-02
87  8.6000000000000E-01  1.0736338710339E+00  4.3915240452717E-01  1.3249890246305E-02
88  8.7000000000000E-01  1.0468028821209E+00  4.7582563542119E-01 -1.0772349437884E-02
89  8.8000000000000E-01  1.0186378093287E+00  5.1370331220564E-01 -3.5558384329201E-02
90  8.9000000000000E-01  9.8918002631846E-01  5.5270775940740E-01 -6.0982426518285E-02
91  9.0000000000000E-01  9.5847633497250E-01  5.9275195111380E-01 -8.6907941532946E-02
92  9.1000000000000E-01  9.2657889480713E-01  6.3373972019007E-01 -1.1318825553609E-01
93  9.2000000000000E-01  8.9354512036729E-01  6.7556603236733E-01 -1.3966725582884E-01
94  9.3000000000000E-01  8.5943754670636E-01  7.1811732450689E-01 -1.6618018136176E-01
95  9.4000000000000E-01  8.2432366326889E-01  7.6127190588379E-01 -1.9255449920696E-01
96  9.5000000000000E-01  7.8827571670685E-01  8.0490042087283E-01 -2.1861086221179E-01
97  9.6000000000000E-01  7.5137048337218E-01  8.4886637096664E-01 -2.4416414234931E-01
98  9.7000000000000E-01  7.1368901243704E-01  8.9302669361311E-01 -2.6902453360882E-01
99  9.8000000000000E-01  6.7531634079601E-01  9.3723239493234E-01 -2.9299871763996E-01
100  9.9000000000000E-01  6.3634118110429E-01  9.8132923295624E-01 -3.1589108476306E-01
101  1.0000000000000E+00  5.9685558449442E-01  1.0251584476461E+00 -3.3750500242637E-01
102  1.0100000000000E+00  5.5695457969561E-01  1.0685575335721E+00 -3.5764412269634E-01
103  1.0200000000000E+00  5.1673579045167E-01  1.1113610507944E+00 -3.7611371993508E-01
104  1.0300000000000E+00  4.7629903329121E-01  1.1534014691726E+00 -3.9272204945359E-01
105  1.0400000000000E+00  4.3574589785134E-01  1.1945100410443E+00 -4.0728171762130E-01
106  1.0500000000000E+00  3.9517931208790E-01  1.2345176969665E+00 -4.1961105368087E-01
107  1.0600000000000E+00  3.5470309482332E-01  1.2732559589952E+00 -4.2953547334833E-01
108  1.0700000000000E+00  3.1442149818477E-01  1.3105578658028E+00 -4.3688882419033E-01
109  1.0800000000000E+00  2.7443874256925E-01  1.3462589037968E+00 -4.4151470275565E-01
110  1.0900000000000E+00  2.3485854684190E-01  1.3801979382997E+00 -4.4326773349111E-01
111  1.1000000000000E+00  1.9578365652180E-01  1.4122181387980E+00 -4.4201479961333E-01
112  1.1100000000000E+00  1.5731537274173E-01  1.4421678922499E+00 -4.3763621631673E-01
113  1.1200000000000E+00  1.1955308478147E-01  1.4699016984673E+00 -4.3002683698049E-01
114  1.1300000000000E+00  8.2593808967307E-02  1.4952810416613E+00 -4.1909708340458E-01
115  1.1400000000000E+00  4.6531736706938E-02  1.5181752323433E+00 -4.0477389152643E-01
116  1.1500000000000E+00  1.1457794384226E-02  1.5384622139346E+00 -3.8700156457713E-01
117  1.1600000000000E+00 -2.2540782222572E-02  1.5560293286227E+00 -3.6574252619653E-01
118  1.1700000000000E+00 -5.5380856416362E-02  1.5707740372383E+00 -3.4097796665879E-01
119  1.1800000000000E+00 -8.6983779464287E-02  1.5826045881955E+00 -3.1270837603873E-01
120  1.1900000000000E+00 -1.1727575751786E-01  1.5914406308422E+00 -2.8095395889678E-01
121  1.2000000000000E+00 -1.4618819432853E-01  1.5972137689073E+00 -2.4575492583720E-01
122  1.2100000000000E+00 -1.7365800766445E-01  1.5998680501024E+00 -2.0717165813095E-01
123  1.2200000000000E+00 -1.9962791749331E-01  1.5993603883349E+00 -1.6528474245649E-01
124  1.2300000000000E+00 -2.2404670416912E-01  1.5956609154146E+00 -1.2019487370545E-01
125  1.2400000000000E+00 -2.4686943504708E-01  1.5887532595865E+00 -7.2022624725919E-02
126  1.2500000000000E+00 -2.6805765814495E-01  1.5786347486892E+00 -2.0908082804258E-02
127  1.2600000000000E+00 -2.8757956167560E-01  1.5653165362257E+00  3.2989646359335E-02
128  1.2700000000000E+00 -3.0541009848770E-01  1.5488236491329E+00  8.9493065484469E-02
129  1.2800000000000E+00 -3.2153107467105E-01  1.5291949565409E+00  1.4840704070451E-01
130  1.2900000000000E+00 -3.3593120180715E-01  1.5064830593331E+00  2.0951968114385E-01
131  1.3000000000000E+00 -3.4860611257303E-01  1.4807541008315E+00  2.7260333858158E-01
132  1.3100000000000E+00 -3.5955833963580E-01  1.4520874994483E+00  3.3741572181704E-01
133  1.3200000000000E+00 -3.6879725800367E-01  1.4205756046559E+00  4.0370111949598E-01
134  1.3300000000000E+00 -3.7633899122867E-01  1.3863232781301E+00  4.7119172433110E-01
135  1.3400000000000E+00 -3.8220628207920E-01  1.3494474024105E+00  5.3960905088405E-01
136  1.3500000000000E+00 -3.8642832852172E-01  1.3100763198960E+00  6.0866543834782E-01
137  1.3600000000000E+00 -3.8904058606472E-01  1.2683492054501E+00  6.7806562910269E-01
138  1.3700000000000E+00 -3.9008453772460E-01  1.2244153763239E+00  7.4750841321452E-01
139  1.3800000000000E+00 -3.8960743307022E-01  1.1784335435100E+00  8.1668832850736E-01
140  1.3900000000000E+00 -3.8766199799081E-01  1.1305710090243E+00  8.8529740537059E-01
141  1.4000000000000E+00 -3.8430611700660E-01  1.0810028139581E+00  9.5302694507354E-01
142  1.4100000000000E+00 -3.7960249010603E-01  1.0299108424623E+00  1.0195693200385E+00
143  1.4200000000000E+00 -3.7361826624134E-01  9.7748288710438E-01  1.0846197842922E+00
144  1.4300000000000E+00 -3.6642465574998E-01  9.2391168128360E-01  1.1478782821593E+00
145  1.4400000000000E+00 -3.5809652408810E-01  8.6939390459497E-01  1.2090512431909E+00
146  1.4500000000000E+00 -3.4871196936541E-01  8.1412916719897E-01  1.2678533513357E+00
147  1.4600000000000E+00 -3.3835188625735E-01  7.5831897937792E-01  1.3240092764538E+00
148  1.4700000000000E+00 -3.2709951893898E-01  7.0216571254370E-01  1.3772553564574E+00
149  1.4800000000000E+00 -3.1504000573730E-01  6.4587155800371E-01  1.4273412186192E+00
150  1.4900000000000E+00 -3.0225991823136E-01  5.8963748979050E-01  1.4740313289323E+00
151  1.5000000000000E+00 -2.8884679754718E-01  5.3366223782190E-01  1.5171064588181E+00
152  1.5100000000000E+00 -2.7488869059057E-01  4.7814127757202E-01  1.5563650589770E+00
153  1.5200000000000E+00 -2.6047368894420E-01  4.2326584231651E-01  1.5916245307248E+00
154  1.5300000000000E+00 -2.4568947311640E-01  3.6922196384960E-01  1.6227223857978E+00
155  1.5400000000000E+00 -2.3062286477818E-01  3.1618954737704E-01  1.6495172862804E+00
156  1.5500000000000E+00 -2.1535938955360E-01  2.6434148605199E-01  1.6718899570633E+00
157  1.5600000000000E+00 -1.9998285284596E-01  2.1384282035807E-01  1.6897439640191E+00
158  1.5700000000000E+00 -1.8457493108116E-01  1.6484994724315E-01  1.7030063519241E+00
159  1.5800000000000E+00 -1.6921478063676E-01  1.1750988358219E-01  1.7116281370210E+00
160  1.5900000000000E+00 -1.5397866660033E-01  7.1959588197000E-02  1.7155846500142E+00
161  1.6000000000000E+00 -1.3893961336151E-01  2.8325346283416E-02  1.7148757262193E+00
162  1.6100000000000E+00 -1.2416707889460E-01 -1.3277780297982E-02  1.7095257405188E+00
163  1.6200000000000E+00 -1.0972665443117E-01 -5.2746433822407E-02  1.6995834857271E+00
164  1.6300000000000E+00 -9.5679791055763E-02 -8.9989369975085E-02  1.6851218939150E+00
165  1.6400000000000E+00 -8.2083554585681E-02 -1.2492779341638E-01  1.6662376011843E+00
166  1.6500000000000E+00 -6.8990409917474E-02 -1.5749561789935E-01  1.6430503573121E+00
167  1.6600000000000E+00 -5.6448035840840E-02 -1.8763964964785E-01  1.6157022825945E+00
168  1.6700000000000E+00 -4.4499171135489E-02 -2.1531969315123E-01  1.5843569750954E+00
169  1.6800000000000E+00 -3.3181492580350E-02 -2.4050857897650E-01  1.5491984723593E+00
170  1.6900000000000E+00 -2.2527525317730E-02 -2.6319211363815E-01  1.5104300724499E+00
171  1.7000000000000E+00 -1.2564585830047E-02 -2.8336895199543E-01  1.4682730199392E+00
172  1.7100000000000E+00 -3.3147576042968E-03 -3.0105039306413E-01  1.4229650631816E+00
173  1.7200000000000E+00  5.2051006205506E-03 -3.1626010053522E-01  1.3747588898628E+00
174  1.7300000000000E+00  1.2983314300393E-02 -3.2903374967456E-01  1.3239204484011E+00
175  1.7400000000000E+00  2.0013320674387E-02 -3.3941860264796E-01  1.2707271633151E+00
176  1.7500000000000E+00  2.6293565100827E-02 -3.4747301465440E-01  1.2154660531201E+00
177  1.7600000000000E+00  3.1827366901271E-02 -3.5326587357313E-01  1.1584317597159E+00
178  1.7700000000000E+00  3.6622755616565E-02 -3.5687597612123E-01  1.0999244985348E+00
179  1.7800000000000E+00  4.0692278713123E-02 -3.5839134378398E-01  1.0402479389640E+00
180  1.7900000000000E+00  4.4052781900955E-02 -3.5790848201545E-01  9.7970702471761E-01
181  1.8000000000000E+00  4.6725163339208E-02 -3.5553158641542E-01  9.1860574392675E-01
182  1.8100000000000E+00  4.8734103105275E-02 -3.5137169976230E-01  8.5724485872477E-01
183  1.8200000000000E+00  5.0107769393391E-02 -3.4554582392569E-01  7.9591960404388E-01
184  1.8300000000000E+00  5.0877502948456E-02 -3.3817599063246E-01  7.3491736397427E-01
185  1.8400000000000E+00  5.1077481337010E-02 -3.2938829530306E-01  6.7451533574342E-01
186  1.8500000000000E+00  5.0744366729140E-02 -3.1931190667326E-01  6.1497824908377E-01
187  1.8600000000000E+00  4.9916927583167E-02 -3.0807800840071E-01  5.5655580052215E-01
188  1.8700000000000E+00  4.8635696466990E-02 -2.9581893588860E-01  4.9948173816026E-01
189  1.8800000000000E+00  4.6942723725791E-02 -2.8266774692490E-01  4.4397601260595E-01
190  1.8900000000000E+00  4.4881335596382E-02 -2.6875781270191E-01  3.9024647072620E-01
191  1.9000000000000E+00  4.2495807750166E-02 -2.5422205541356E-01  3.3848765426553E-01
192  1.9100000000000E+00  3.9831041256152E-02 -2.3919221235059E-01  2.8887981563946E-01
193  1.9200000000000E+00  3.6932237534661E-02 -2.2379810781625E-01  2.4158797099689E-01
194  1.9300000000000E+00  3.3844575223044E-02 -2.0816694244943E-01  1.9676105009636E-01
195  1.9400000000000E+00  3.0612890072583E-02 -1.9242260161714E-01  1.5453113662850E-01
196  1.9500000000000E+00  2.7281359226180E-02 -1.7668498564541E-01  1.1501280302493E-01
197  1.9600000000000E+00  2.3893191074441E-02 -1.6106936409502E-01  7.8302540527371E-02
198  1.9700000000000E+00  2.0490321807342E-02 -1.4568575605108E-01  4.4478284698267E-02
199  1.9800000000000E+00  1.7113119700824E-02 -1.3063833817998E-01  1.3599036106926E-02
200  1.9900000000000E+00  1.3800098072408E-02 -1.1602488197894E-01 -1.4295425266298E-02
201  2.0000000000000E+00  1.0587637760975E-02 -1.0193622144281E-01 -3.9184733648888E-02
202  2.0100000000000E+00  7.5097198870043E-03 -8.8455752085156E-02 -6.1068041764176E-02
203  2.0200000000000E+00  4.5976695486334E-03 -7.5658961966580E-02 -7.9964039236320E-02
204  2.0300000000000E+00  1.8799110233033E-03 -6.3612995160996E-02 -9.5910889034707E-02
205  2.0400000000000E+00 -6.1826504110031E-04 -5.2376247874097E-02 -1.0896608631533E-01
206  2.0500000000000E+00 -2.8749220563772E-03 -4.1997997165187E-02 -1.1920624479958E-01
207  2.0600000000000E+00 -4.8716852525110E-03 -3.2518061974941E-02 -1.2672681641293E-01
208  2.0700000000000E+00 -6.5939365260478E-03 -2.3966496058090E-02 -1.3164174986230E-01
209  2.0800000000000E+00 -8.0309962354854E-03 -1.6363312162500E-02 -1.3408309457462E-01
210  2.0900000000000E+00 -9.1762918739386E-03 -9.7182366241958E-03 -1.3420055674481E-01
211  2.1000000000000E+00 -1.0027513593470E-02 -4.0304934815226E-03 -1.3216101407094E-01
212  2.1100000000000E+00 -1.0586751204079E-02  7.1137168384786E-04 -1.2814797789858E-01
213  2.1200000000000E+00 -1.0860659063979E-02  4.5297264613379E-03 -1.2236117076747E-01
214  2.1300000000000E+00 -1.0860488224112E-02  7.4578076977162E-03 -1.1501566088205E-01
215  2.1400000000000E+00 -1.0602229470078E-02  9.5399071506852E-03 -1.0634138896903E-01
216  2.1500000000000E+00 -1.0107257060342E-02  1.0832674229990E-02 -9.6584796244046E-02
217  2.1600000000000E+00 -9.4056647914131E-03  1.1411707282005E-02 -8.6018050693539E-02
218  2.1700000000000E+00 -8.5304602587988E-03  1.1359239427161E-02 -7.4917836303639E-02
219  2.1800000000000E+00 -7.5122902293615E-03  1.0753246675176E-02 -6.3547563596573E-02
220  2.1900000000000E+00 -6.3889126273393E-03  9.6875645538088E-03 -5.2191317605236E-02
221  2.2000000000000E+00 -5.2041873838479E-03  8.2696085877531E-03 -4.1149285415890E-02
222  2.2100000000000E+00 -4.0080350427035E-03  6.6201744266715E-03 -3.0736837602105E-02
223  2.2200000000000E+00 -2.8563413254731E-03  4.8731424083686E-03 -2.1283543603143E-02
224  2.2300000000000E+00 -1.8118217064923E-03  3.1770102210998E-03 -1.3138530135431E-02
225  2.2400000000000E+00 -9.3467727317402E-04  1.6770671568472E-03 -6.6089423033651E-03
226  2.2500000000000E+00 -3.1614069947602E-04  5.7858827360230E-04 -2.1821556736947E-03
227  2.2600000000000E+00 -2.8531250459779E-05  5.2715739282477E-05 -1.9385637704845E-04
228  2.2700000000000E+00  1.8072927487836E-05 -3.4210090634941E-05  1.1970351942144E-04
229  2.2800000000000E+00 -4.9579048849940E-06  9.2686259696159E-06 -3.3387392893543E-05
230  2.29  0. -0.  0.
231  2.30  0. -0.  0.
232  2.31 -0.  0. -0.
233  2.32  0.  0.  0.
234  2.33  0.  0.  0.
235  2.34  0.  0.  0.
236  2.35  0.  0.  0.
237  2.36  0.  0.  0.
238  2.37  0.  0.  0.
239  2.38  0.  0.  0.
240  2.39  0.  0.  0.
241  2.40  0.  0.  0.
242  2.41  0.  0.  0.
243  2.42  0.  0.  0.
244  2.43  0.  0.  0.
245  2.44  0.  0.  0.
246  2.45  0.  0.  0.
247  2.46  0.  0.  0.
248  2.47  0.  0.  0.
249  2.48  0.  0.  0.
250  2.49  0.  0.  0.
251  2.50  0.  0.  0.
252  2.51  0.  0.  0.
253  2.52  0.  0.  0.
254  2.53  0.  0.  0.
255  2.54  0.  0.  0.
256  2.55  0.  0.  0.
257  2.56  0.  0.  0.
258  2.57  0.  0.  0.
259  2.58  0.  0.  0.
260  2.59  0.  0.  0.
261  2.60  0.  0.  0.
262  2.61  0.  0.  0.
263  2.62  0.  0.  0.
264  2.63  0.  0.  0.
265  2.64  0.  0.  0.
266  2.65  0.  0.  0.
267  2.66  0.  0.  0.
268  2.67  0.  0.  0.
269  2.68  0.  0.  0.
270  2.69  0.  0.  0.
271  2.70  0.  0.  0.
272  2.71  0.  0.  0.
273  2.72  0.  0.  0.
274  2.73  0.  0.  0.
275  2.74  0.  0.  0.
276  2.75  0.  0.  0.
277  2.76  0.  0.  0.
278  2.77  0.  0.  0.
279  2.78  0.  0.  0.
280  2.79  0.  0.  0.
281  2.80  0.  0.  0.
282  2.81  0.  0.  0.
283  2.82  0.  0.  0.
284  2.83  0.  0.  0.
285  2.84  0.  0.  0.
286  2.85  0.  0.  0.
287  2.86  0.  0.  0.
288  2.87  0.  0.  0.
289  2.88  0.  0.  0.
290  2.89  0.  0.  0.
291  2.90  0.  0.  0.
292  2.91  0.  0.  0.
293  2.92  0.  0.  0.
294  2.93  0.  0.  0.
295  2.94  0.  0.  0.
296  2.95  0.  0.  0.
297  2.96  0.  0.  0.
298  2.97  0.  0.  0.
299  2.98  0.  0.  0.
300  2.99  0.  0.  0.
301  3.00  0.  0.  0.
302  3.01  0.  0.  0.
303  3.02  0.  0.  0.
304  3.03  0.  0.  0.
305  3.04  0.  0.  0.
306  3.05  0.  0.  0.
307  3.06  0.  0.  0.
308  3.07  0.  0.  0.
309  3.08  0.  0.  0.
310  3.09  0.  0.  0.
311  3.10  0.  0.  0.
312  3.11  0.  0.  0.
313  3.12  0.  0.  0.
314  3.13  0.  0.  0.
315  3.14  0.  0.  0.
316  3.15  0.  0.  0.
317  3.16  0.  0.  0.
318  3.17  0.  0.  0.
319  3.18  0.  0.  0.
320  3.19  0.  0.  0.
321  3.20  0.  0.  0.
322  3.21  0.  0.  0.
323  3.22  0.  0.  0.
324  3.23  0.  0.  0.
325  3.24  0.  0.  0.
326  3.25  0.  0.  0.
327  3.26  0.  0.  0.
328  3.27  0.  0.  0.
329  3.28  0.  0.  0.
330  3.29  0.  0.  0.
331  3.30  0.  0.  0.
332  3.31  0.  0.  0.
333  3.32  0.  0.  0.
334  3.33  0.  0.  0.
335  3.34  0.  0.  0.
336  3.35  0.  0.  0.
337  3.36  0.  0.  0.
338  3.37  0.  0.  0.
339  3.38  0.  0.  0.
340  3.39  0.  0.  0.
341  3.40  0.  0.  0.
342  3.41  0.  0.  0.
343  3.42  0.  0.  0.
344  3.43  0.  0.  0.
345  3.44  0.  0.  0.
346  3.45  0.  0.  0.
347  3.46  0.  0.  0.
348  3.47  0.  0.  0.
349  3.48  0.  0.  0.
350  3.49  0.  0.  0.
351  3.50  0.  0.  0.
352  3.51  0.  0.  0.
353  3.52  0.  0.  0.
354  3.53  0.  0.  0.
355  3.54  0.  0.  0.
356  3.55  0.  0.  0.
357  3.56  0.  0.  0.
358  3.57  0.  0.  0.
359  3.58  0.  0.  0.
360  3.59  0.  0.  0.
361  3.60  0.  0.  0.
362  3.61  0.  0.  0.
363  3.62  0.  0.  0.
364  3.63  0.  0.  0.
365  3.64  0.  0.  0.
366  3.65  0.  0.  0.
367  3.66  0.  0.  0.
368  3.67  0.  0.  0.
369  3.68  0.  0.  0.
370  3.69  0.  0.  0.
371  3.70  0.  0.  0.
372  3.71  0.  0.  0.
373  3.72  0.  0.  0.
374  3.73  0.  0.  0.
375  3.74  0.  0.  0.
376  3.75  0.  0.  0.
377  3.76  0.  0.  0.
378  3.77  0.  0.  0.
379  3.78  0.  0.  0.
380  3.79  0.  0.  0.
381  3.80  0.  0.  0.
382  3.81  0.  0.  0.
383  3.82  0.  0.  0.
384  3.83  0.  0.  0.
385  3.84  0.  0.  0.
386  3.85  0.  0.  0.
387  3.86  0.  0.  0.
388  3.87  0.  0.  0.
389  3.88  0.  0.  0.
390  3.89  0.  0.  0.
391  3.90  0.  0.  0.
392  3.91  0.  0.  0.
393  3.92  0.  0.  0.
394  3.93  0.  0.  0.
395  3.94  0.  0.  0.
396  3.95  0.  0.  0.
397  3.96  0.  0.  0.
398  3.97  0.  0.  0.
399  3.98  0.  0.  0.
400  3.99  0.  0.  0.
401  4.00  0.  0.  0.
402  4.01  0.  0.  0.
403  4.02  0.  0.  0.
404  4.03  0.  0.  0.
405  4.04  0.  0.  0.
406  4.05  0.  0.  0.
407  4.06  0.  0.  0.
408  4.07  0.  0.  0.
409  4.08  0.  0.  0.
410  4.09  0.  0.  0.
411  4.10  0.  0.  0.
412  4.11  0.  0.  0.
413  4.12  0.  0.  0.
414  4.13  0.  0.  0.
415  4.14  0.  0.  0.
416  4.15  0.  0.  0.
417  4.16  0.  0.  0.
418  4.17  0.  0.  0.
419  4.18  0.  0.  0.
420  4.19  0.  0.  0.
421  4.20  0.  0.  0.
422  4.21  0.  0.  0.
423  4.22  0.  0.  0.
424  4.23  0.  0.  0.
425  4.24  0.  0.  0.
426  4.25  0.  0.  0.
427  4.26  0.  0.  0.
428  4.27  0.  0.  0.
429  4.28  0.  0.  0.
430  4.29  0.  0.  0.
431  4.30  0.  0.  0.
432  4.31  0.  0.  0.
433  4.32  0.  0.  0.
434  4.33  0.  0.  0.
435  4.34  0.  0.  0.
436  4.35  0.  0.  0.
437  4.36  0.  0.  0.
438  4.37  0.  0.  0.
439  4.38  0.  0.  0.
440  4.39  0.  0.  0.
441  4.40  0.  0.  0.
442  4.41  0.  0.  0.
443  4.42  0.  0.  0.
444  4.43  0.  0.  0.
445  4.44  0.  0.  0.
446  4.45  0.  0.  0.
447  4.46  0.  0.  0.
448  4.47  0.  0.  0.
449  4.48  0.  0.  0.
450  4.49  0.  0.  0.
451  4.50  0.  0.  0.
452  4.51  0.  0.  0.
453  4.52  0.  0.  0.
454  4.53  0.  0.  0.
455  4.54  0.  0.  0.
456  4.55  0.  0.  0.
457  4.56  0.  0.  0.
458  4.57  0.  0.  0.
459  4.58  0.  0.  0.
460  4.59  0.  0.  0.
461  4.60  0.  0.  0.
462  4.61  0.  0.  0.
463  4.62  0.  0.  0.
464  4.63  0.  0.  0.
465  4.64  0.  0.  0.
466  4.65  0.  0.  0.
467  4.66  0.  0.  0.
468  4.67  0.  0.  0.
469  4.68  0.  0.  0.
470  4.69  0.  0.  0.
471  4.70  0.  0.  0.
472  4.71  0.  0.  0.
473  4.72  0.  0.  0.
474  4.73  0.  0.  0.
475  4.74  0.  0.  0.
476  4.75  0.  0.  0.
477  4.76  0.  0.  0.
478  4.77  0.  0.  0.
479  4.78  0.  0.  0.
480  4.79  0.  0.  0.
481  4.80  0.  0.  0.
482  4.81  0.  0.  0.
483  4.82  0.  0.  0.
484  4.83  0.  0.  0.
485  4.84  0.  0.  0.
486  4.85  0.  0.  0.
487  4.86  0.  0.  0.
488  4.87  0.  0.  0.
489  4.88  0.  0.  0.
490  4.89  0.  0.  0.
491  4.90  0.  0.  0.
492  4.91  0.  0.  0.
493  4.92  0.  0.  0.
494  4.93  0.  0.  0.
495  4.94  0.  0.  0.
496  4.95  0.  0.  0.
497  4.96  0.  0.  0.
498  4.97  0.  0.  0.
499  4.98  0.  0.  0.
500  4.99  0.  0.  0.
501  5.00  0.  0.  0.
502  5.01  0.  0.  0.
503  5.02  0.  0.  0.
504  5.03  0.  0.  0.
505  5.04  0.  0.  0.
506  5.05  0.  0.  0.
507  5.06  0.  0.  0.
508  5.07  0.  0.  0.
509  5.08  0.  0.  0.
510  5.09  0.  0.  0.
511  5.10  0.  0.  0.
512  5.11  0.  0.  0.
513  5.12  0.  0.  0.
514  5.13  0.  0.  0.
515  5.14  0.  0.  0.
516  5.15  0.  0.  0.
517  5.16  0.  0.  0.
518  5.17  0.  0.  0.
519  5.18  0.  0.  0.
520  5.19  0.  0.  0.
521  5.20  0.  0.  0.
522  5.21  0.  0.  0.
523  5.22  0.  0.  0.
524  5.23  0.  0.  0.
525  5.24  0.  0.  0.
526  5.25  0.  0.  0.
527  5.26  0.  0.  0.
528  5.27  0.  0.  0.
529  5.28  0.  0.  0.
530  5.29  0.  0.  0.
531  5.30  0.  0.  0.
532  5.31  0.  0.  0.
533  5.32  0.  0.  0.
534  5.33  0.  0.  0.
535  5.34  0.  0.  0.
536  5.35  0.  0.  0.
537  5.36  0.  0.  0.
538  5.37  0.  0.  0.
539  5.38  0.  0.  0.
540  5.39  0.  0.  0.
541  5.40  0.  0.  0.
542  5.41  0.  0.  0.
543  5.42  0.  0.  0.
544  5.43  0.  0.  0.
545  5.44  0.  0.  0.
546  5.45  0.  0.  0.
547  5.46  0.  0.  0.
548  5.47  0.  0.  0.
549  5.48  0.  0.  0.
550  5.49  0.  0.  0.
551  5.50  0.  0.  0.
552  5.51  0.  0.  0.
553  5.52  0.  0.  0.
554  5.53  0.  0.  0.
555  5.54  0.  0.  0.
556  5.55  0.  0.  0.
557  5.56  0.  0.  0.
558  5.57  0.  0.  0.
559  5.58  0.  0.  0.
560  5.59  0.  0.  0.
561  5.60  0.  0.  0.
562  5.61  0.  0.  0.
563  5.62  0.  0.  0.
564  5.63  0.  0.  0.
565  5.64  0.  0.  0.
566  5.65  0.  0.  0.
567  5.66  0.  0.  0.
568  5.67  0.  0.  0.
569  5.68  0.  0.  0.
570  5.69  0.  0.  0.
571  5.70  0.  0.  0.
572  5.71  0.  0.  0.
573  5.72  0.  0.  0.
574  5.73  0.  0.  0.
575  5.74  0.  0.  0.
576  5.75  0.  0.  0.
577  5.76  0.  0.  0.
578  5.77  0.  0.  0.
579  5.78  0.  0.  0.
580  5.79  0.  0.  0.
581  5.80  0.  0.  0.
582  5.81  0.  0.  0.
583  5.82  0.  0.  0.
584  5.83  0.  0.  0.
585  5.84  0.  0.  0.
586  5.85  0.  0.  0.
587  5.86  0.  0.  0.
588  5.87  0.  0.  0.
589  5.88  0.  0.  0.
590  5.89  0.  0.  0.
591  5.90  0.  0.  0.
592  5.91  0.  0.  0.
593  5.92  0.  0.  0.
594  5.93  0.  0.  0.
595  5.94  0.  0.  0.
596  5.95  0.  0.  0.
597  5.96  0.  0.  0.
598  5.97  0.  0.  0.
599  5.98  0.  0.  0.
600  5.99  0.  0.  0.
1                         6.1243476540436E+00  7.3824237560592E-01
1  0.0000000000000E+00 -1.7764024973221E-10  4.2082322175563E-10
2  1.0000000000000E-02  4.9331607307350E-04 -1.4467696225384E-04
3  2.0000000000000E-02  1.9731924107386E-03 -5.7978297865678E-04
4  3.0000000000000E-02  4.4394054882988E-03 -1.3085235643040E-03
5  4.0000000000000E-02  7.8915565948246E-03 -2.3361752279919E-03
6  5.0000000000000E-02  1.2329032917046E-02 -3.6699872493267E-03
7  6.0000000000000E-02  1.7750953730134E-02 -5.3190457611824E-03
8  7.0000000000000E-02  2.4156102360095E-02 -7.2941017116355E-03
9  8.0000000000000E-02  3.1542844760124E-02 -9.6073647003316E-03
10  9.0000000000000E-02  3.9909035711961E-02 -1.2272265083862E-02
11  1.0000000000000E-01  4.9251913821092E-02 -1.5303187118719E-02
12  1.1000000000000E-01  5.9567986619968E-02 -1.8715176254962E-02
13  1.2000000000000E-01  7.0852907224608E-02 -2.2523624004912E-02
14  1.3000000000000E-01  8.3101344105684E-02 -2.6743934085855E-02
15  1.4000000000000E-01  9.6306845634065E-02 -3.1391173770742E-02
16  1.5000000000000E-01  1.1046170114186E-01 -3.6479714573681E-02
17  1.6000000000000E-01  1.2555680030227E-01 -4.2022866545622E-02
18  1.7000000000000E-01  1.4158149267433E-01 -4.8032510558059E-02
19  1.8000000000000E-01  1.5852344928143E-01 -5.4518733008001E-02
20  1.9000000000000E-01  1.7636852809492E-01 -6.1489467384827E-02