Nd    ONCVPSP-4.0.1  r_core=   2.00095   1.60366   1.90745   1.60366
60.0000     14.0000      241206    zatom,zion,pspd
8      11   3     4   600     0    pspcod,pspxc,lmax,lloc,mmax,r2well
5.99000000  4.00000000  0.00000000    rchrg fchrg qchrg
2     2     2     2     0    nproj
1     1           extension_switch
0                         7.2259608453157E+00  4.4026718316229E-01
1  0.0000000000000E+00  6.2241822806897E-11 -2.8487516512410E-10
2  1.0000000000000E-02  3.6167347285173E-02 -4.3020070573103E-03
3  2.0000000000000E-02  7.2324698576655E-02 -8.6472528654440E-03
4  3.0000000000000E-02  1.0846188586702E-01 -1.3078317690503E-02
5  4.0000000000000E-02  1.4456839887230E-01 -1.7636471938972E-02
6  5.0000000000000E-02  1.8063321825503E-01 -2.2361038929442E-02
7  6.0000000000000E-02  2.1664465403658E-01 -2.7288778702424E-02
8  7.0000000000000E-02  2.5259019085464E-01 -3.2453299543511E-02
9  8.0000000000000E-02  2.8845634165993E-01 -3.7884503610300E-02
10  9.0000000000000E-02  3.2422851136909E-01 -4.3608072702597E-02
11  1.0000000000000E-01  3.5989087190049E-01 -4.9644999802381E-02
12  1.1000000000000E-01  3.9542624991588E-01 -5.6011171538441E-02
13  1.2000000000000E-01  4.3081602847578E-01 -6.2717006205627E-02
14  1.3000000000000E-01  4.6604006368970E-01 -6.9767151395251E-02
15  1.4000000000000E-01  5.0107661730620E-01 -7.7160244677146E-02
16  1.5000000000000E-01  5.3590230604316E-01 -8.4888740121565E-02
17  1.6000000000000E-01  5.7049206830661E-01 -9.2938802766591E-02
18  1.7000000000000E-01  6.0481914878850E-01 -1.0129027243141E-01
19  1.8000000000000E-01  6.3885510127203E-01 -1.0991669755447E-01
20  1.9000000000000E-01  6.7256980980783E-01 -1.1878543900543E-01
21  2.0000000000000E-01  7.0593152825798E-01 -1.2785784308843E-01
22  2.1000000000000E-01  7.3890693803873E-01 -1.3708948222932E-01
23  2.2000000000000E-01  7.7146122372803E-01 -1.4643046112740E-01
24  2.3000000000000E-01  8.0355816604282E-01 -1.5582578546177E-01
25  2.4000000000000E-01  8.3516025153428E-01 -1.6521578957909E-01
26  2.5000000000000E-01  8.6622879819865E-01 -1.7453661896171E-01
27  2.6000000000000E-01  8.9672409605808E-01 -1.8372076268787E-01
28  2.7000000000000E-01  9.2660556163192E-01 -1.9269763055625E-01
29  2.8000000000000E-01  9.5583190509427E-01 -2.0139416906070E-01
30  2.9000000000000E-01  9.8436130880075E-01 -2.0973550997291E-01
31  3.0000000000000E-01  1.0121516157663E+00 -2.1764564492502E-01
32  3.1000000000000E-01  1.0391605265879E+00 -2.2504811908626E-01
33  3.2000000000000E-01  1.0653458032329E+00 -2.3186673679909E-01
34  3.3000000000000E-01  1.0906654780526E+00 -2.3802627188492E-01
35  3.4000000000000E-01  1.1150780663375E+00 -2.4345317524908E-01
36  3.5000000000000E-01  1.1385427807022E+00 -2.4807627240980E-01
37  3.6000000000000E-01  1.1610197455716E+00 -2.5182744364780E-01
38  3.7000000000000E-01  1.1824702100476E+00 -2.5464227962081E-01
39  3.8000000000000E-01  1.2028567574462E+00 -2.5646070550962E-01
40  3.9000000000000E-01  1.2221435098369E+00 -2.5722756705820E-01
41  4.0000000000000E-01  1.2402963259562E+00 -2.5689317223562E-01
42  4.1000000000000E-01  1.2572829909367E+00 -2.5541378268061E-01
43  4.2000000000000E-01  1.2730733963661E+00 -2.5275204958480E-01
44  4.3000000000000E-01  1.2876397092822E+00 -2.4887738922365E-01
45  4.4000000000000E-01  1.3009565288106E+00 -2.4376629395100E-01
46  4.5000000000000E-01  1.3130010292671E+00 -2.3740257512405E-01
47  4.6000000000000E-01  1.3237530886678E+00 -2.2977753512010E-01
48  4.7000000000000E-01  1.3331954017227E+00 -2.2089006633042E-01
49  4.8000000000000E-01  1.3413135765291E+00 -2.1074667576903E-01
50  4.9000000000000E-01  1.3480962143242E+00 -1.9936143470379E-01
51  5.0000000000000E-01  1.3535349718083E+00 -1.8675585349687E-01
52  5.1000000000000E-01  1.3576246057032E+00 -1.7295868262360E-01
53  5.2000000000000E-01  1.3603629993626E+00 -1.5800564161589E-01
54  5.3000000000000E-01  1.3617511714102E+00 -1.4193907843732E-01
55  5.4000000000000E-01  1.3617932665316E+00 -1.2480756253847E-01
56  5.5000000000000E-01  1.3604965286976E+00 -1.0666541555047E-01
57  5.6000000000000E-01  1.3578712572437E+00 -8.7572184248458E-02
58  5.7000000000000E-01  1.3539307463689E+00 -6.7592061044935E-02
59  5.8000000000000E-01  1.3486912087539E+00 -4.6793257849720E-02
60  5.9000000000000E-01  1.3421716841197E+00 -2.5247339653218E-02
61  6.0000000000000E-01  1.3343939336661E+00 -3.0285246455415E-03
62  6.1000000000000E-01  1.3253823214349E+00  1.9787041927861E-02
63  6.2000000000000E-01  1.3151636837335E+00  4.3122032658508E-02
64  6.3000000000000E-01  1.3037671878398E+00  6.6898693860894E-02
65  6.4000000000000E-01  1.2912241812745E+00  9.1039604537151E-02
66  6.5000000000000E-01  1.2775680329846E+00  1.1546843042802E-01
67  6.6000000000000E-01  1.2628339678220E+00  1.4011066515982E-01
68  6.7000000000000E-01  1.2470588957280E+00  1.6489435058335E-01
69  6.8000000000000E-01  1.2302812370502E+00  1.8975076856793E-01
70  6.9000000000000E-01  1.2125407454150E+00  2.1461509676081E-01
71  7.0000000000000E-01  1.1938783295670E+00  2.3942702114754E-01
72  7.1000000000000E-01  1.1743358755575E+00  2.6413129864821E-01
73  7.2000000000000E-01  1.1539560706253E+00  2.8867826345405E-01
74  7.3000000000000E-01  1.1327822300611E+00  3.1302427134432E-01
75  7.4000000000000E-01  1.1108581282821E+00  3.3713207681817E-01
76  7.5000000000000E-01  1.0882278352706E+00  3.6097113852528E-01
77  7.6000000000000E-01  1.0649355594493E+00  3.8451784917441E-01
78  7.7000000000000E-01  1.0410254979717E+00  4.0775568683436E-01
79  7.8000000000000E-01  1.0165416953112E+00  4.3067528530884E-01
80  7.9000000000000E-01  9.9152791092853E-01  4.5327442205814E-01
81  8.0000000000000E-01  9.6602749668751E-01  4.7555792294604E-01
82  8.1000000000000E-01  9.4008328458169E-01  4.9753748390559E-01
83  8.2000000000000E-01  9.1373748521903E-01  5.1923141042893E-01
84  8.3000000000000E-01  8.8703159740094E-01  5.4066427658991E-01
85  8.4000000000000E-01  8.6000632901916E-01  5.6186650609423E-01
86  8.5000000000000E-01  8.3270152938475E-01  5.8287387861145E-01
87  8.6000000000000E-01  8.0515613299666E-01  6.0372696537146E-01
88  8.7000000000000E-01  7.7740811465554E-01  6.2447049869527E-01
89  8.8000000000000E-01  7.4949445573145E-01  6.4515268077203E-01
90  8.9000000000000E-01  7.2145112130367E-01  6.6582443758443E-01
91  9.0000000000000E-01  6.9331304780706E-01  6.8653862441752E-01
92  9.1000000000000E-01  6.6511414074308E-01  7.0734918985960E-01
93  9.2000000000000E-01  6.3688728194540E-01  7.2831030561148E-01
94  9.3000000000000E-01  6.0866434582977E-01  7.4947546976321E-01
95  9.4000000000000E-01  5.8047622400577E-01  7.7089659147140E-01
96  9.5000000000000E-01  5.5235285758498E-01  7.9262306517590E-01
97  9.6000000000000E-01  5.2432327648375E-01  8.1470084263246E-01
98  9.7000000000000E-01  4.9641564499177E-01  8.3717151110843E-01
99  9.8000000000000E-01  4.6865731285612E-01  8.6007138609491E-01
100  9.9000000000000E-01  4.4107487111724E-01  8.8343062683267E-01
101  1.0000000000000E+00  4.1369421192415E-01  9.0727238283602E-01
102  1.0100000000000E+00  3.8654059155362E-01  9.3161197943066E-01
103  1.0200000000000E+00  3.5963869585812E-01  9.5645615010595E-01
104  1.0300000000000E+00  3.3301270737135E-01  9.8180232322277E-01
105  1.0400000000000E+00  3.0668637330540E-01  1.0076379703208E+00
106  1.0500000000000E+00  2.8068307368001E-01  1.0339400229415E+00
107  1.0600000000000E+00  2.5502588883058E-01  1.0606743645281E+00
108  1.0700000000000E+00  2.2973766554609E-01  1.0877954035933E+00
109  1.0800000000000E+00  2.0484108109064E-01  1.1152457339548E+00
110  1.0900000000000E+00  1.8035870436185E-01  1.1429558874482E+00
111  1.1000000000000E+00  1.5631305343417E-01  1.1708441841249E+00
112  1.1100000000000E+00  1.3272664872672E-01  1.1988166845457E+00
113  1.1200000000000E+00  1.0962206102051E-01  1.2267672483896E+00
114  1.1300000000000E+00  8.7021953531204E-02  1.2545777032046E+00
115  1.1400000000000E+00  6.4949117218960E-02  1.2821181267520E+00
116  1.1500000000000E+00  4.3426498488026E-02  1.3092472460179E+00
117  1.1600000000000E+00  2.2477218395420E-02  1.3358129555988E+00
118  1.1700000000000E+00  2.1245824516731E-03  1.3616529578025E+00
119  1.1800000000000E+00 -1.7607919941871E-02  1.3865955264320E+00
120  1.1900000000000E+00 -3.6696627413436E-02  1.4104603958427E+00
121  1.2000000000000E+00 -5.5117730930347E-02  1.4330597764649E+00
122  1.2100000000000E+00 -7.2847311562336E-02  1.4541994975523E+00
123  1.2200000000000E+00 -8.9861392789887E-02  1.4736802774522E+00
124  1.2300000000000E+00 -1.0613600846551E-01  1.4912991211627E+00
125  1.2400000000000E+00 -1.2164728753953E-01  1.5068508443486E+00
126  1.2500000000000E+00 -1.3637155664814E-01  1.5201297222957E+00
127  1.2600000000000E+00 -1.5028546162652E-01  1.5309312614824E+00
128  1.2700000000000E+00 -1.6336610894889E-01  1.5390540905179E+00
129  1.2800000000000E+00 -1.7559122800553E-01  1.5443019660984E+00
130  1.2900000000000E+00 -1.8693935499787E-01  1.5464858883615E+00
131  1.3000000000000E+00 -1.9739003906434E-01  1.5454263185335E+00
132  1.3100000000000E+00 -2.0692407103007E-01  1.5409554900330E+00
133  1.3200000000000E+00 -2.1552373490279E-01  1.5329198021937E+00
134  1.3300000000000E+00 -2.2317308190494E-01  1.5211822834740E+00
135  1.3400000000000E+00 -2.2985822643246E-01  1.5056251083706E+00
136  1.3500000000000E+00 -2.3556766285668E-01  1.4861521492387E+00
137  1.3600000000000E+00 -2.4029260152983E-01  1.4626915407928E+00
138  1.3700000000000E+00 -2.4402732171353E-01  1.4351982311987E+00
139  1.3800000000000E+00 -2.4676953840478E-01  1.4036564892841E+00
140  1.3900000000000E+00 -2.4852077919177E-01  1.3680823325156E+00
141  1.4000000000000E+00 -2.4928676631203E-01  1.3285258349155E+00
142  1.4100000000000E+00 -2.4907779800854E-01  1.2850732680207E+00
143  1.4200000000000E+00 -2.4790912207118E-01  1.2378490212457E+00
144  1.4300000000000E+00 -2.4580129310250E-01  1.1870172405523E+00
145  1.4400000000000E+00 -2.4278050355581E-01  1.1327831161423E+00
146  1.4500000000000E+00 -2.3887887694336E-01  1.0753937408798E+00
147  1.4600000000000E+00 -2.3413470979201E-01  1.0151384512673E+00
148  1.4700000000000E+00 -2.2859264694317E-01  9.5234855208320E-01
149  1.4800000000000E+00 -2.2230377260058E-01  8.8739631397555E-01
150  1.4900000000000E+00 -2.1532559716506E-01  8.2069312059386E-01
151  1.5000000000000E+00 -2.0772191730794E-01  7.5268662797307E-01
152  1.5100000000000E+00 -1.9956252393241E-01  6.8385678388240E-01
153  1.5200000000000E+00 -1.9092272963782E-01  6.1471053863638E-01
154  1.5300000000000E+00 -1.8188268401987E-01  5.4577506134298E-01
155  1.5400000000000E+00 -1.7252644160646E-01  4.7758925671213E-01
156  1.5500000000000E+00 -1.6294074342114E-01  4.1069335724266E-01
157  1.5600000000000E+00 -1.5321346906376E-01  3.4561634373304E-01
158  1.5700000000000E+00 -1.4343171181033E-01  2.8286092366746E-01
159  1.5800000000000E+00 -1.3367942312878E-01  2.2288575975555E-01
160  1.5900000000000E+00 -1.2403456921628E-01  1.6608462772773E-01
161  1.6000000000000E+00 -1.1456581344401E-01  1.1276280226791E-01
162  1.6100000000000E+00 -1.0532832321133E-01  6.3107427224053E-02
163  1.6200000000000E+00 -9.6364420274013E-02  1.7201557555734E-02
164  1.6300000000000E+00 -8.7710095346689E-02 -2.4913512322762E-02
165  1.6400000000000E+00 -7.9397509877804E-02 -6.3215062065266E-02
166  1.6500000000000E+00 -7.1454681965648E-02 -9.7701272143514E-02
167  1.6600000000000E+00 -6.3905478134868E-02 -1.2839089678138E-01
168  1.6700000000000E+00 -5.6769585628339E-02 -1.5532324283797E-01
169  1.6800000000000E+00 -5.0062516096155E-02 -1.7855798438941E-01
170  1.6900000000000E+00 -4.3795641946686E-02 -1.9817480424323E-01
171  1.7000000000000E+00 -3.7976264179346E-02 -2.1427287240247E-01
172  1.7100000000000E+00 -3.2607711227835E-02 -2.2697016408873E-01
173  1.7200000000000E+00 -2.7689468115888E-02 -2.3640262101457E-01
174  1.7300000000000E+00 -2.3217334901539E-02 -2.4272316147400E-01
175  1.7400000000000E+00 -1.9183613165799E-02 -2.4610054588428E-01
176  1.7500000000000E+00 -1.5577319006284E-02 -2.4671810608064E-01
177  1.7600000000000E+00 -1.2384420783785E-02 -2.4477234772923E-01
178  1.7700000000000E+00 -9.5880996354243E-03 -2.4047143648723E-01
179  1.7800000000000E+00 -7.1690305298096E-03 -2.3403357986546E-01
180  1.7900000000000E+00 -5.1056814823192E-03 -2.2568531750933E-01
181  1.8000000000000E+00 -3.3746283567526E-03 -2.1565973367798E-01
182  1.8100000000000E+00 -1.9508825297575E-03 -2.0419460650152E-01
183  1.8200000000000E+00 -8.0822856252854E-04 -1.9153050930162E-01
184  1.8300000000000E+00  8.0431023139404E-05 -1.7790887942991E-01
185  1.8400000000000E+00  7.4272693451250E-04 -1.6357007111540E-01
186  1.8500000000000E+00  1.2064735861716E-03 -1.4875141050758E-01
187  1.8600000000000E+00  1.4993208632188E-03 -1.3368526178774E-01
188  1.8700000000000E+00  1.6484140820107E-03 -1.1859714175638E-01
189  1.8800000000000E+00  1.6800429397986E-03 -1.0370380738626E-01
190  1.8900000000000E+00  1.6193723352975E-03 -8.9211677361393E-02
191  1.9000000000000E+00  1.4900227391681E-03 -7.5314729655205E-02
192  1.9100000000000E+00  1.3122601454726E-03 -6.2186908947704E-02
193  1.9200000000000E+00  1.1041183661988E-03 -4.9985937641658E-02
194  1.9300000000000E+00  8.8449574548007E-04 -3.8865077193320E-02
195  1.9400000000000E+00  6.6949145330586E-04 -2.8958776469657E-02
196  1.9500000000000E+00  4.7238075172085E-04 -2.0382200474307E-02
197  1.9600000000000E+00  3.0339948823657E-04 -1.3230096470277E-02
198  1.9700000000000E+00  1.6964484528676E-04 -7.5783417675948E-03
199  1.9800000000000E+00  7.4594805368136E-05 -3.4621774174768E-03
200  1.9900000000000E+00  1.9469721813027E-05 -9.5569788005889E-04
201  2.0000000000000E+00  5.5057186674456E-07 -2.9184200056066E-05
202  2.0100000000000E+00 -5.3538996262852E-07  2.8983034332355E-05
203  2.0200000000000E+00  3.0131565417032E-07 -1.5432157735500E-05
204  2.03 -0.  0.
205  2.04 -0. -0.
206  2.05  0.  0.
207  2.06  0.  0.
208  2.07  0.  0.
209  2.08  0.  0.
210  2.09  0.  0.
211  2.10  0.  0.
212  2.11  0.  0.
213  2.12  0.  0.
214  2.13  0.  0.
215  2.14  0.  0.
216  2.15  0.  0.
217  2.16  0.  0.
218  2.17  0.  0.
219  2.18  0.  0.
220  2.19  0.  0.
221  2.20  0.  0.
222  2.21  0.  0.
223  2.22  0.  0.
224  2.23  0.  0.
225  2.24  0.  0.
226  2.25  0.  0.
227  2.26  0.  0.
228  2.27  0.  0.
229  2.28  0.  0.
230  2.29  0.  0.
231  2.30  0.  0.
232  2.31  0.  0.
233  2.32  0.  0.
234  2.33  0.  0.
235  2.34  0.  0.
236  2.35  0.  0.
237  2.36  0.  0.
238  2.37  0.  0.
239  2.38  0.  0.
240  2.39  0.  0.
241  2.40  0.  0.
242  2.41  0.  0.
243  2.42  0.  0.
244  2.43  0.  0.
245  2.44  0.  0.
246  2.45  0.  0.
247  2.46  0.  0.
248  2.47  0.  0.
249  2.48  0.  0.
250  2.49  0.  0.
251  2.50  0.  0.
252  2.51  0.  0.
253  2.52  0.  0.
254  2.53  0.  0.
255  2.54  0.  0.
256  2.55  0.  0.
257  2.56  0.  0.
258  2.57  0.  0.
259  2.58  0.  0.
260  2.59  0.  0.
261  2.60  0.  0.
262  2.61  0.  0.
263  2.62  0.  0.
264  2.63  0.  0.
265  2.64  0.  0.
266  2.65  0.  0.
267  2.66  0.  0.
268  2.67  0.  0.
269  2.68  0.  0.
270  2.69  0.  0.
271  2.70  0.  0.
272  2.71  0.  0.
273  2.72  0.  0.
274  2.73  0.  0.
275  2.74  0.  0.
276  2.75  0.  0.
277  2.76  0.  0.
278  2.77  0.  0.
279  2.78  0.  0.
280  2.79  0.  0.
281  2.80  0.  0.
282  2.81  0.  0.
283  2.82  0.  0.
284  2.83  0.  0.
285  2.84  0.  0.
286  2.85  0.  0.
287  2.86  0.  0.
288  2.87  0.  0.
289  2.88  0.  0.
290  2.89  0.  0.
291  2.90  0.  0.
292  2.91  0.  0.
293  2.92  0.  0.
294  2.93  0.  0.
295  2.94  0.  0.
296  2.95  0.  0.
297  2.96  0.  0.
298  2.97  0.  0.
299  2.98  0.  0.
300  2.99  0.  0.
301  3.00  0.  0.
302  3.01  0.  0.
303  3.02  0.  0.
304  3.03  0.  0.
305  3.04  0.  0.
306  3.05  0.  0.
307  3.06  0.  0.
308  3.07  0.  0.
309  3.08  0.  0.
310  3.09  0.  0.
311  3.10  0.  0.
312  3.11  0.  0.
313  3.12  0.  0.
314  3.13  0.  0.
315  3.14  0.  0.
316  3.15  0.  0.
317  3.16  0.  0.
318  3.17  0.  0.
319  3.18  0.  0.
320  3.19  0.  0.
321  3.20  0.  0.
322  3.21  0.  0.
323  3.22  0.  0.
324  3.23  0.  0.
325  3.24  0.  0.
326  3.25  0.  0.
327  3.26  0.  0.
328  3.27  0.  0.
329  3.28  0.  0.
330  3.29  0.  0.
331  3.30  0.  0.
332  3.31  0.  0.
333  3.32  0.  0.
334  3.33  0.  0.
335  3.34  0.  0.
336  3.35  0.  0.
337  3.36  0.  0.
338  3.37  0.  0.
339  3.38  0.  0.
340  3.39  0.  0.
341  3.40  0.  0.
342  3.41  0.  0.
343  3.42  0.  0.
344  3.43  0.  0.
345  3.44  0.  0.
346  3.45  0.  0.
347  3.46  0.  0.
348  3.47  0.  0.
349  3.48  0.  0.
350  3.49  0.  0.
351  3.50  0.  0.
352  3.51  0.  0.
353  3.52  0.  0.
354  3.53  0.  0.
355  3.54  0.  0.
356  3.55  0.  0.
357  3.56  0.  0.
358  3.57  0.  0.
359  3.58  0.  0.
360  3.59  0.  0.
361  3.60  0.  0.
362  3.61  0.  0.
363  3.62  0.  0.
364  3.63  0.  0.
365  3.64  0.  0.
366  3.65  0.  0.
367  3.66  0.  0.
368  3.67  0.  0.
369  3.68  0.  0.
370  3.69  0.  0.
371  3.70  0.  0.
372  3.71  0.  0.
373  3.72  0.  0.
374  3.73  0.  0.
375  3.74  0.  0.
376  3.75  0.  0.
377  3.76  0.  0.
378  3.77  0.  0.
379  3.78  0.  0.
380  3.79  0.  0.
381  3.80  0.  0.
382  3.81  0.  0.
383  3.82  0.  0.
384  3.83  0.  0.
385  3.84  0.  0.
386  3.85  0.  0.
387  3.86  0.  0.
388  3.87  0.  0.
389  3.88  0.  0.
390  3.89  0.  0.
391  3.90  0.  0.
392  3.91  0.  0.
393  3.92  0.  0.
394  3.93  0.  0.
395  3.94  0.  0.
396  3.95  0.  0.
397  3.96  0.  0.
398  3.97  0.  0.
399  3.98  0.  0.
400  3.99  0.  0.
401  4.00  0.  0.
402  4.01  0.  0.
403  4.02  0.  0.
404  4.03  0.  0.
405  4.04  0.  0.
406  4.05  0.  0.
407  4.06  0.  0.
408  4.07  0.  0.
409  4.08  0.  0.
410  4.09  0.  0.
411  4.10  0.  0.
412  4.11  0.  0.
413  4.12  0.  0.
414  4.13  0.  0.
415  4.14  0.  0.
416  4.15  0.  0.
417  4.16  0.  0.
418  4.17  0.  0.
419  4.18  0.  0.
420  4.19  0.  0.
421  4.20  0.  0.
422  4.21  0.  0.
423  4.22  0.  0.
424  4.23  0.  0.
425  4.24  0.  0.
426  4.25  0.  0.
427  4.26  0.  0.
428  4.27  0.  0.
429  4.28  0.  0.
430  4.29  0.  0.
431  4.30  0.  0.
432  4.31  0.  0.
433  4.32  0.  0.
434  4.33  0.  0.
435  4.34  0.  0.
436  4.35  0.  0.
437  4.36  0.  0.
438  4.37  0.  0.
439  4.38  0.  0.
440  4.39  0.  0.
441  4.40  0.  0.
442  4.41  0.  0.
443  4.42  0.  0.
444  4.43  0.  0.
445  4.44  0.  0.
446  4.45  0.  0.
447  4.46  0.  0.
448  4.47  0.  0.
449  4.48  0.  0.
450  4.49  0.  0.
451  4.50  0.  0.
452  4.51  0.  0.
453  4.52  0.  0.
454  4.53  0.  0.
455  4.54  0.  0.
456  4.55  0.  0.
457  4.56  0.  0.
458  4.57  0.  0.
459  4.58  0.  0.
460  4.59  0.  0.
461  4.60  0.  0.
462  4.61  0.  0.
463  4.62  0.  0.
464  4.63  0.  0.
465  4.64  0.  0.
466  4.65  0.  0.
467  4.66  0.  0.
468  4.67  0.  0.
469  4.68  0.  0.
470  4.69  0.  0.
471  4.70  0.  0.
472  4.71  0.  0.
473  4.72  0.  0.
474  4.73  0.  0.
475  4.74  0.  0.
476  4.75  0.  0.
477  4.76  0.  0.
478  4.77  0.  0.
479  4.78  0.  0.
480  4.79  0.  0.
481  4.80  0.  0.
482  4.81  0.  0.
483  4.82  0.  0.
484  4.83  0.  0.
485  4.84  0.  0.
486  4.85  0.  0.
487  4.86  0.  0.
488  4.87  0.  0.
489  4.88  0.  0.
490  4.89  0.  0.
491  4.90  0.  0.
492  4.91  0.  0.
493  4.92  0.  0.
494  4.93  0.  0.
495  4.94  0.  0.
496  4.95  0.  0.
497  4.96  0.  0.
498  4.97  0.  0.
499  4.98  0.  0.
500  4.99  0.  0.
501  5.00  0.  0.
502  5.01  0.  0.
503  5.02  0.  0.
504  5.03  0.  0.
505  5.04  0.  0.
506  5.05  0.  0.
507  5.06  0.  0.
508  5.07  0.  0.
509  5.08  0.  0.
510  5.09  0.  0.
511  5.10  0.  0.
512  5.11  0.  0.
513  5.12  0.  0.
514  5.13  0.  0.
515  5.14  0.  0.
516  5.15  0.  0.
517  5.16  0.  0.
518  5.17  0.  0.
519  5.18  0.  0.
520  5.19  0.  0.
521  5.20  0.  0.
522  5.21  0.  0.
523  5.22  0.  0.
524  5.23  0.  0.
525  5.24  0.  0.
526  5.25  0.  0.
527  5.26  0.  0.
528  5.27  0.  0.
529  5.28  0.  0.
530  5.29  0.  0.
531  5.30  0.  0.
532  5.31  0.  0.
533  5.32  0.  0.
534  5.33  0.  0.
535  5.34  0.  0.
536  5.35  0.  0.
537  5.36  0.  0.
538  5.37  0.  0.
539  5.38  0.  0.
540  5.39  0.  0.
541  5.40  0.  0.
542  5.41  0.  0.
543  5.42  0.  0.
544  5.43  0.  0.
545  5.44  0.  0.
546  5.45  0.  0.
547  5.46  0.  0.
548  5.47  0.  0.
549  5.48  0.  0.
550  5.49  0.  0.
551  5.50  0.  0.
552  5.51  0.  0.
553  5.52  0.  0.
554  5.53  0.  0.
555  5.54  0.  0.
556  5.55  0.  0.
557  5.56  0.  0.
558  5.57  0.  0.
559  5.58  0.  0.
560  5.59  0.  0.
561  5.60  0.  0.
562  5.61  0.  0.
563  5.62  0.  0.
564  5.63  0.  0.
565  5.64  0.  0.
566  5.65  0.  0.
567  5.66  0.  0.
568  5.67  0.  0.
569  5.68  0.  0.
570  5.69  0.  0.
571  5.70  0.  0.
572  5.71  0.  0.
573  5.72  0.  0.
574  5.73  0.  0.
575  5.74  0.  0.
576  5.75  0.  0.
577  5.76  0.  0.
578  5.77  0.  0.
579  5.78  0.  0.
580  5.79  0.  0.
581  5.80  0.  0.
582  5.81  0.  0.
583  5.82  0.  0.
584  5.83  0.  0.
585  5.84  0.  0.
586  5.85  0.  0.
587  5.86  0.  0.
588  5.87  0.  0.
589  5.88  0.  0.
590  5.89  0.  0.
591  5.90  0.  0.
592  5.91  0.  0.
593  5.92  0.  0.
594  5.93  0.  0.
595  5.94  0.  0.
596  5.95  0.  0.
597  5.96  0.  0.
598  5.97  0.  0.
599  5.98  0.  0.
600  5.99  0.  0.
1                         4.6370996380942E+00  9.2600057817865E-01
1  0.0000000000000E+00  1.3908386262140E-08 -4.9938546575756E-08
2  1.0000000000000E-02  1.4090865171358E-03 -2.3323430109884E-03
3  2.0000000000000E-02  5.6161673314916E-03 -9.2618636988667E-03
4  3.0000000000000E-02  1.2561113765308E-02 -2.0587497131213E-02
5  4.0000000000000E-02  2.2145061588850E-02 -3.5978972630006E-02
6  5.0000000000000E-02  3.4232407791190E-02 -5.4983967527799E-02
7  6.0000000000000E-02  4.8653549477687E-02 -7.7037919372702E-02
8  7.0000000000000E-02  6.5208309646366E-02 -1.0147629829963E-01
9  8.0000000000000E-02  8.3669980686968E-02 -1.2754909134677E-01
10  9.0000000000000E-02  1.0378990389601E-01 -1.5443720541550E-01
11  1.0000000000000E-01  1.2530249235629E-01 -1.8127045623657E-01
12  1.1000000000000E-01  1.4793059540701E-01 -2.0714677789104E-01
13  1.2000000000000E-01  1.7139109581292E-01 -2.3115226179463E-01
14  1.3000000000000E-01  1.9540062577118E-01 -2.5238161610178E-01
15  1.4000000000000E-01  2.1968128517442E-01 -2.6995862658897E-01
16  1.5000000000000E-01  2.4396624513784E-01 -2.8305619844637E-01
17  1.6000000000000E-01  2.6800512170912E-01 -2.9091556509662E-01
18  1.7000000000000E-01  2.9156900888375E-01 -2.9286426506093E-01
19  1.8000000000000E-01  3.1445506646828E-01 -2.8833251073901E-01
20  1.9000000000000E-01  3.3649056685176E-01 -2.7686760334051E-01
21  2.0000000000000E-01  3.5753631520249E-01 -2.5814608553296E-01
22  2.1000000000000E-01  3.7748936980477E-01 -2.3198336695287E-01
23  2.2000000000000E-01  3.9628500295681E-01 -1.9834060673445E-01
24  2.3000000000000E-01  4.1389785780502E-01 -1.5732869071081E-01
25  2.4000000000000E-01  4.3034227240326E-01 -1.0920919791188E-01
26  2.5000000000000E-01  4.4567175885252E-01 -5.4392310324532E-02
27  2.6000000000000E-01  4.5997764227486E-01  6.5683195507843E-03
28  2.7000000000000E-01  4.7338688127785E-01  7.2983668190229E-02
29  2.8000000000000E-01  4.8605910814039E-01  1.4404027293290E-01
30  2.9000000000000E-01  4.9818294287368E-01  2.1881380440913E-01
31  3.0000000000000E-01  5.0997165026581E-01  2.9628503387062E-01
32  3.1000000000000E-01  5.2165822270921E-01  3.7535790047829E-01
33  3.2000000000000E-01  5.3348998376061E-01  4.5487933976607E-01
34  3.3000000000000E-01  5.4572281774811E-01  5.3366049701192E-01
35  3.4000000000000E-01  5.5861513910471E-01  6.1049891887716E-01
36  3.5000000000000E-01  5.7242172129738E-01  6.8420129405612E-01
37  3.6000000000000E-01  5.8738750909897E-01  7.5360629929758E-01
38  3.7000000000000E-01  6.0374153942705E-01  8.1760710135041E-01
39  3.8000000000000E-01  6.2169109500167E-01  8.7517306831690E-01
40  3.9000000000000E-01  6.4141621165649E-01  9.2537025557138E-01
41  4.0000000000000E-01  6.6306465432089E-01  9.6738025165162E-01
42  4.1000000000000E-01  6.8674746857170E-01  1.0005169980254E+00
43  4.2000000000000E-01  7.1253520437038E-01  1.0242412328801E+00
44  4.3000000000000E-01  7.4045489633884E-01  1.0381722524336E+00
45  4.4000000000000E-01  7.7048787090621E-01  1.0420967329383E+00
46  4.5000000000000E-01  8.0256843513711E-01  1.0359744116207E+00
47  4.6000000000000E-01  8.3658348531913E-01  1.0199404842645E+00
48  4.7000000000000E-01  8.7237305575521E-01  9.9430463986160E-01
49  4.8000000000000E-01  9.0973181001145E-01  9.5954671756615E-01
50  4.9000000000000E-01  9.4841145845772E-01  9.1630903683071E-01
51  5.0000000000000E-01  9.8812406766262E-01  8.6538551683863E-01
52  5.1000000000000E-01  1.0285462094195E+00  8.0770776489935E-01
53  5.2000000000000E-01  1.0693238802346E+00  7.4432837410827E-01
54  5.3000000000000E-01  1.1100781063357E+00  6.7640172709545E-01
55  5.4000000000000E-01  1.1504111349749E+00  6.0516265397308E-01
56  5.5000000000000E-01  1.1899131002928E+00  5.3190333760736E-01
57  5.6000000000000E-01  1.2281690415350E+00  4.5794889716644E-01
58  5.7000000000000E-01  1.2647661431960E+00  3.8463211074068E-01
59  5.8000000000000E-01  1.2993010608746E+00  3.1326775905079E-01
60  5.9000000000000E-01  1.3313871934092E+00  2.4512708437088E-01
61  6.0000000000000E-01  1.3606617612916E+00  1.8141286148143E-01
62  6.1000000000000E-01  1.3867925534806E+00  1.2323557059861E-01
63  6.2000000000000E-01  1.4094842095291E+00  7.1591145846025E-02
64  6.3000000000000E-01  1.4284839113399E+00  2.7340747173287E-02
65  6.4000000000000E-01  1.4435863687523E+00 -8.8070309087282E-03
66  6.5000000000000E-01  1.4546379953717E+00 -3.6311143230605E-02
67  6.6000000000000E-01  1.4615401853752E+00 -5.4809950327438E-02
68  6.7000000000000E-01  1.4642516182049E+00 -6.4129684100369E-02
69  6.8000000000000E-01  1.4627895357968E+00 -6.4289322240322E-02
70  6.9000000000000E-01  1.4572299559766E+00 -5.5501737973972E-02
71  7.0000000000000E-01  1.4477068055183E+00 -3.8171062000879E-02
72  7.1000000000000E-01  1.4344099767462E+00 -1.2886265711349E-02
73  7.2000000000000E-01  1.4175823320760E+00  1.9588952476943E-02
74  7.3000000000000E-01  1.3975157011460E+00  5.8329823915822E-02
75  7.4000000000000E-01  1.3745459347994E+00  1.0226748624212E-01
76  7.5000000000000E-01  1.3490470987552E+00  1.5020899011023E-01
77  7.6000000000000E-01  1.3214249069961E+00  2.0085998543620E-01
78  7.7000000000000E-01  1.2921095103536E+00  2.5284968134132E-01
79  7.8000000000000E-01  1.2615477691810E+00  3.0475762608166E-01
80  7.9000000000000E-01  1.2301951501004E+00  3.5514181353029E-01
81  8.0000000000000E-01  1.1985073953492E+00  4.0256759207890E-01
82  8.1000000000000E-01  1.1669321190619E+00  4.4563683080911E-01
83  8.2000000000000E-01  1.1359004877560E+00  4.8301678693837E-01
84  8.3000000000000E-01  1.1058191422776E+00  5.1346811817167E-01
85  8.4000000000000E-01  1.0770625154654E+00  5.3587149378576E-01
86  8.5000000000000E-01  1.0499656938529E+00  5.4925227893986E-01
87  8.6000000000000E-01  1.0248179629252E+00  5.5280279754229E-01
88  8.7000000000000E-01  1.0018571639286E+00  5.4590171951155E-01
89  8.8000000000000E-01  9.8126497619149E-01  5.2813016776466E-01
90  8.9000000000000E-01  9.6316322259600E-01  4.9928419788551E-01
91  9.0000000000000E-01  9.4761127753701E-01  4.5938336814474E-01
92  9.1000000000000E-01  9.3460463674539E-01  4.0867518819616E-01
93  9.2000000000000E-01  9.2407468710118E-01  3.4763531007048E-01
94  9.3000000000000E-01  9.1588969241237E-01  2.7696340364198E-01
95  9.4000000000000E-01  9.0985698849663E-01  1.9757473909754E-01
96  9.5000000000000E-01  9.0572635820292E-01  1.1058757958212E-01
97  9.6000000000000E-01  9.0319453467410E-01  1.7306566614757E-02
98  9.7000000000000E-01  9.0191075960244E-01 -8.0797642434413E-02
99  9.8000000000000E-01  9.0148330288606E-01 -1.8211215302963E-01
100  9.9000000000000E-01  9.0148683134020E-01 -2.8490862963576E-01
101  1.0000000000000E+00  9.0147049732575E-01 -3.8737265068761E-01
102  1.0100000000000E+00  9.0096660364317E-01 -4.8763511171715E-01
103  1.0200000000000E+00  8.9949968911069E-01 -5.8380512315903E-01
104  1.0300000000000E+00  8.9659587012791E-01 -6.7400381646408E-01
105  1.0400000000000E+00  8.9179226740710E-01 -7.5639844987516E-01
106  1.0500000000000E+00  8.8464634408323E-01 -8.2923619410291E-01
107  1.0600000000000E+00  8.7474498164095E-01 -8.9087697836837E-01
108  1.0700000000000E+00  8.6171312356173E-01 -9.3982478900678E-01
109  1.0800000000000E+00  8.4522182322641E-01 -9.7475683581529E-01
110  1.0900000000000E+00  8.2499554231232E-01 -9.9455003524669E-01
111  1.1000000000000E+00  8.0081855855095E-01 -9.9830430388978E-01
112  1.1100000000000E+00  7.7254035697455E-01 -9.8536220942340E-01
113  1.1200000000000E+00  7.4007989653980E-01 -9.5532458890687E-01
114  1.1300000000000E+00  7.0342866374169E-01 -9.0806181399842E-01
115  1.1400000000000E+00  6.6265244645794E-01 -8.4372045926048E-01
116  1.1500000000000E+00  6.1789178402758E-01 -7.6272521040645E-01
117  1.1600000000000E+00  5.6936107348584E-01 -6.6577593424601E-01
118  1.1700000000000E+00  5.1734633603419E-01 -5.5383991794480E-01
119  1.1800000000000E+00  4.6220167226312E-01 -4.2813937219415E-01
120  1.1900000000000E+00  4.0434445845626E-01 -2.9013437776034E-01
121  1.2000000000000E+00  3.4424935943015E-01 -1.4150153745254E-01
122  1.2100000000000E+00  2.8244125512037E-01  1.5891326614431E-02
123  1.2200000000000E+00  2.1948719820236E-01  1.8001401858040E-01
124  1.2300000000000E+00  1.5598753814021E-01  3.4870588020311E-01
125  1.2400000000000E+00  9.2566362643857E-02  5.1971023468769E-01
126  1.2500000000000E+00  2.9861420555278E-02  6.9071078223702E-01
127  1.2600000000000E+00 -3.1486299778248E-02  8.5936932971602E-01
128  1.2700000000000E+00 -9.0843155632415E-02  1.0233642108041E+00
129  1.2800000000000E+00 -1.4759341377704E-01  1.1804287382555E+00
130  1.2900000000000E+00 -2.0114960794272E-01  1.3283890269736E+00
131  1.3000000000000E+00 -2.5096250759164E-01  1.4652005351235E+00
132  1.3100000000000E+00 -2.9653052188874E-01  1.5889826907704E+00
133  1.3200000000000E+00 -3.3740837207381E-01  1.6980510028045E+00
134  1.3300000000000E+00 -3.7321487768712E-01  1.7909460966010E+00