Nd    ONCVPSP-4.0.1  r_core=   2.00095   1.60366   1.90745   1.35634
60.0000     14.0000      241104    zatom,zion,pspd
8      11   3     4   600     0    pspcod,pspxc,lmax,lloc,mmax,r2well
5.99000000  4.00000000  0.00000000    rchrg fchrg qchrg
3     2     2     2     0    nproj
1     1           extension_switch
0                         1.1179079656309E+01  1.8765561983579E+00  3.1667053356126E-01
1  0.0000000000000E+00 -6.3993410570617E-10  2.2053008585932E-09 -4.7573704420323E-09
2  1.0000000000000E-02  3.3863797709904E-02 -1.8849562459498E-02  4.3848381054115E-02
3  2.0000000000000E-02  6.7666964517451E-02 -3.7455909893611E-02  8.7083550494961E-02
4  3.0000000000000E-02  1.0134970389866E-01 -5.5579246110759E-02  1.2910038931125E-01
5  4.0000000000000E-02  1.3485387559412E-01 -7.2986567099841E-02  1.6930986211510E-01
6  5.0000000000000E-02  1.6812379267591E-01 -8.9454943970876E-02  2.0714680622717E-01
7  6.0000000000000E-02  2.0110698179574E-01 -1.0477467169940E-01  2.4207742090314E-01
8  7.0000000000000E-02  2.3375489510210E-01 -1.1875224156186E-01  2.7360636239653E-01
9  8.0000000000000E-02  2.6602356295367E-01 -1.3121309735452E-01  3.0128335530983E-01
10  9.0000000000000E-02  2.9787417734188E-01 -1.4200413819544E-01  3.2470923652875E-01
11  1.0000000000000E-01  3.2927359685592E-01 -1.5099593388649E-01  3.4354135489556E-01
12  1.1000000000000E-01  3.6019476506964E-01 -1.5808462242333E-01  3.5749825758072E-01
13  1.2000000000000E-01  3.9061703538592E-01 -1.6319346323874E-01  3.6636360275829E-01
14  1.3000000000000E-01  4.2052639662962E-01 -1.6627402410842E-01  3.6998924759380E-01
15  1.4000000000000E-01  4.4991559501630E-01 -1.6730698427890E-01  3.6829747058995E-01
16  1.5000000000000E-01  4.7878414952611E-01 -1.6630254124310E-01  3.6128229789579E-01
17  1.6000000000000E-01  5.0713825916286E-01 -1.6330041363330E-01  3.4900991414851E-01
18  1.7000000000000E-01  5.3499060205839E-01 -1.5836943785821E-01  3.3161814964625E-01
19  1.8000000000000E-01  5.6236002787397E-01 -1.5160676132128E-01  3.0931504701741E-01
20  1.9000000000000E-01  5.8927114643528E-01 -1.4313664025872E-01  2.8237652192765E-01
21  2.0000000000000E-01  6.1575381699542E-01 -1.3310885536109E-01  2.5114314360358E-01
22  2.1000000000000E-01  6.4184254393308E-01 -1.2169676332813E-01  2.1601607192202E-01
23  2.2000000000000E-01  6.6757578604392E-01 -1.0909500729903E-01  1.7745219839447E-01
24  2.3000000000000E-01  6.9299518785071E-01 -9.5516913622935E-02  1.3595854841142E-01
25  2.4000000000000E-01  7.1814474253021E-01 -8.1191606651575E-02  9.2086011516617E-02
26  2.5000000000000E-01  7.4306989711094E-01 -6.6360877069946E-02  4.6422475096162E-02
27  2.6000000000000E-01  7.6781661152654E-01 -5.1275842704826E-02 -4.1455537126303E-04
28  2.7000000000000E-01  7.9243038389624E-01 -3.6193443698606E-02 -4.7785759591012E-02
29  2.8000000000000E-01  8.1695525504114E-01 -2.1372816387426E-02 -9.5038133617934E-02
30  2.9000000000000E-01  8.4143280571535E-01 -7.0715921203041E-03 -1.4151334871473E-01
31  3.0000000000000E-01  8.6590116033742E-01  6.4578313965243E-03 -1.8655623431058E-01
32  3.1000000000000E-01  8.9039401113053E-01  1.8971997908848E-02 -2.2952327936745E-01
33  3.2000000000000E-01  9.1493967653076E-01  3.0240031102881E-02 -2.6979104560303E-01
34  3.3000000000000E-01  9.3956020748624E-01  4.0047155771834E-02 -3.0676438650089E-01
35  3.4000000000000E-01  9.6427055485865E-01  4.8198054730507E-02 -3.3988436780123E-01
36  3.5000000000000E-01  9.8907781054593E-01  5.4520016230080E-02 -3.6863578824628E-01
37  3.6000000000000E-01  1.0139805341842E+00  5.8865828885855E-02 -3.9255420368760E-01
38  3.7000000000000E-01  1.0389681763596E+00  6.1116383961662E-02 -4.1123236323649E-01
39  3.8000000000000E-01  1.0640206081807E+00  6.1182948209581E-02 -4.2432597286278E-01
40  3.9000000000000E-01  1.0891077658403E+00  5.9009074322547E-02 -4.3155870968222E-01
41  4.0000000000000E-01  1.1141894174432E+00  5.4572120359862E-02 -4.3272641899775E-01
42  4.1000000000000E-01  1.1392150579131E+00  4.7884354214568E-02 -4.2770043590221E-01
43  4.2000000000000E-01  1.1641239362349E+00  3.8993624240382E-02 -4.1642998377049E-01
44  4.3000000000000E-01  1.1888452176497E+00  2.7983582493266E-02 -3.9894361316856E-01
45  4.4000000000000E-01  1.2132982817329E+00  1.4973452594899E-02 -3.7534965642830E-01
46  4.5000000000000E-01  1.2373931555549E+00  1.1733993214847E-04 -3.4583568526097E-01
47  4.6000000000000E-01  1.2610310793870E+00 -1.6396912316218E-02 -3.1066697112930E-01
48  4.7000000000000E-01  1.2841052006818E+00 -3.4349312039771E-02 -2.7018396056239E-01
49  4.8000000000000E-01  1.3065013903614E+00 -5.3489736947704E-02 -2.2479878996165E-01
50  4.9000000000000E-01  1.3280991737985E+00 -7.3540362634665E-02 -1.7499087661780E-01
51  5.0000000000000E-01  1.3487727673097E+00 -9.4198474031079E-02 -1.2130163442942E-01
52  5.1000000000000E-01  1.3683922095085E+00 -1.1513962923848E-01 -6.4328374063659E-02
53  5.2000000000000E-01  1.3868245755140E+00 -1.3602114004016E-01 -4.7174578656484E-03
54  5.3000000000000E-01  1.4039352607967E+00 -1.5648582908516E-01  5.6843210420565E-02
55  5.4000000000000E-01  1.4195893203853E+00 -1.7616601994195E-01  1.1963227226851E-01
56  5.5000000000000E-01  1.4336528482686E+00 -1.9468771294085E-01  1.8290348072903E-01
57  5.6000000000000E-01  1.4459943811271E+00 -2.1167489704075E-01  2.4589464339321E-01
58  5.7000000000000E-01  1.4564863100241E+00 -2.2675394589402E-01  3.0783683353725E-01
59  5.8000000000000E-01  1.4650062833838E+00 -2.3955804487366E-01  3.6796375708216E-01
60  5.9000000000000E-01  1.4714385845036E+00 -2.4973159510985E-01  4.2552116048707E-01
61  6.0000000000000E-01  1.4756754669731E+00 -2.5693454054979E-01  4.7977616360385E-01
62  6.1000000000000E-01  1.4776184317235E+00 -2.6084656473605E-01  5.3002640192606E-01
63  6.2000000000000E-01  1.4771794299940E+00 -2.6117110537207E-01  5.7560886453456E-01
64  6.3000000000000E-01  1.4742819772728E+00 -2.5763913680433E-01  6.1590831737390E-01
65  6.4000000000000E-01  1.4688621642500E+00 -2.5001267327967E-01  6.5036520626272E-01
66  6.5000000000000E-01  1.4608695519838E+00 -2.3808794919040E-01  6.7848294016795E-01
67  6.6000000000000E-01  1.4502679398286E+00 -2.2169823646627E-01  6.9983446270021E-01
68  6.7000000000000E-01  1.4370359961761E+00 -2.0071626376099E-01  7.1406802842557E-01
69  6.8000000000000E-01  1.4211677437152E+00 -1.7505620704886E-01  7.2091211031522E-01
70  6.9000000000000E-01  1.4026728926785E+00 -1.4467522663040E-01  7.2017937534835E-01
71  7.0000000000000E-01  1.3815770174190E+00 -1.0957453127459E-01  7.1176967681054E-01
72  7.1000000000000E-01  1.3579215735945E+00 -6.9799956219791E-02  6.9567202403087E-01
73  7.2000000000000E-01  1.3317637552318E+00 -2.5442047933314E-02  6.7196550301964E-01
74  7.3000000000000E-01  1.3031761929463E+00  2.3364345198332E-02  6.4081913451863E-01
75  7.4000000000000E-01  1.2722464965944E+00  7.6440970787134E-02  6.0249066921425E-01
76  7.5000000000000E-01  1.2390766475989E+00  1.3356754731241E-01  5.5732433305655E-01
77  7.6000000000000E-01  1.2037822480883E+00  1.9448359823928E-01  5.0574754866733E-01
78  7.7000000000000E-01  1.1664916357950E+00  2.5889072191381E-01  4.4826667145207E-01
79  7.8000000000000E-01  1.1273448753493E+00  3.2645526832166E-01  3.8546179113875E-01
80  7.9000000000000E-01  1.0864926381507E+00  3.9681138877448E-01  3.1798066086925E-01
81  8.0000000000000E-01  1.0440949843756E+00  4.6956442006904E-01  2.4653182649038E-01
82  8.1000000000000E-01  1.0003200618732E+00  5.4429456069591E-01  1.7187703822597E-01
83  8.2000000000000E-01  9.5534273768542E-01  6.2056079333030E-01  9.4823035308116E-02
84  8.3000000000000E-01  9.0934317868790E-01  6.9790500516572E-01  1.6212801293344E-02
85  8.4000000000000E-01  8.6250539838043E-01  7.7585625568103E-01 -6.3083606376543E-02
86  8.5000000000000E-01  8.1501578713550E-01  8.5393514020709E-01 -1.4217854459242E-01
87  8.6000000000000E-01  7.6706164325182E-01  9.3165819718322E-01 -2.2017647961265E-01
88  8.7000000000000E-01  7.1882972194336E-01  1.0085423072803E+00 -2.9618377644349E-01
89  8.8000000000000E-01  6.7050481892904E-01  1.0841090336090E+00 -3.6931847005917E-01
90  8.9000000000000E-01  6.2226840458328E-01  1.1578888539998E+00 -4.3871990734976E-01
91  9.0000000000000E-01  5.7429732366732E-01  1.2294252388139E+00 -5.0355815149162E-01
92  9.1000000000000E-01  5.2676257450377E-01  1.2982785308742E+00 -5.6304304455884E-01
93  9.2000000000000E-01  4.7982818009815E-01  1.3640295878318E+00 -6.1643282955488E-01
94  9.3000000000000E-01  4.3365016217347E-01  1.4262831515405E+00 -6.6304223951301E-01
95  9.4000000000000E-01  3.8837562738816E-01  1.4846709137373E+00 -7.0224996879535E-01
96  9.5000000000000E-01  3.4414197318762E-01  1.5388542524051E+00 -7.3350545001077E-01
97  9.6000000000000E-01  3.0107621881805E-01  1.5885266185603E+00 -7.5633486896877E-01
98  9.7000000000000E-01  2.5929446504544E-01  1.6334155587510E+00 -7.7034635957962E-01
99  9.8000000000000E-01  2.1890148410367E-01  1.6732843641571E+00 -7.7523433044067E-01
100  9.9000000000000E-01  1.7999043938018E-01  1.7079333427679E+00 -7.7078288483369E-01
101  1.0000000000000E+00  1.4264273237095E-01  1.7372007165368E+00 -7.5686830581404E-01
102  1.0100000000000E+00  1.0692797253364E-01  1.7609631505990E+00 -7.3346058783741E-01
103  1.0200000000000E+00  7.2904063875496E-02  1.7791359264594E+00 -7.0062400577974E-01
104  1.0300000000000E+00  4.0617400466664E-02  1.7916727754206E+00 -6.5851672109619E-01
105  1.0400000000000E+00  1.0103161598469E-02  1.7985653923375E+00 -6.0738943314342E-01
106  1.0500000000000E+00 -1.8614303952814E-02  1.7998426529610E+00 -5.4758309121593E-01
107  1.0600000000000E+00 -4.5521016121277E-02  1.7955695606041E+00 -4.7952568957526E-01
108  1.0700000000000E+00 -7.0612836532178E-02  1.7858459495626E+00 -4.0372817362430E-01
109  1.0800000000000E+00 -9.3894889073567E-02  1.7708049736002E+00 -3.2077949039048E-01
110  1.0900000000000E+00 -1.1538094104857E-01  1.7506114078630E+00 -2.3134082071055E-01
111  1.1000000000000E+00 -1.3509275776613E-01  1.7254597917586E+00 -1.3613903397333E-01
112  1.1100000000000E+00 -1.5305944298833E-01  1.6955724387001E+00 -3.5959409187234E-02
113  1.1200000000000E+00 -1.6931677689088E-01  1.6611973361433E+00  6.8362331349628E-02
114  1.1300000000000E+00 -1.8390656213117E-01  1.6226059561524E+00  1.7594862714605E-01
115  1.1400000000000E+00 -1.9687598725489E-01  1.5800909928511E+00  2.8588927217373E-01
116  1.1500000000000E+00 -2.0827701504887E-01  1.5339640387162E+00  3.9725114079081E-01
117  1.1600000000000E+00 -2.1816580156892E-01  1.4845532068332E+00  5.0908838847070E-01
118  1.1700000000000E+00 -2.2660214950885E-01  1.4322007012088E+00  6.2045306322316E-01
119  1.1800000000000E+00 -2.3364899734125E-01  1.3772603321389E+00  7.3040605570225E-01
120  1.1900000000000E+00 -2.3937194334965E-01  1.3200949688116E+00  8.3802830532435E-01
121  1.2000000000000E+00 -2.4383880131796E-01  1.2610739169613E+00  9.4243216534786E-01
122  1.2100000000000E+00 -2.4711918235340E-01  1.2005702058894E+00  1.0427728109979E+00
123  1.2200000000000E+00 -2.4928409517439E-01  1.1389577668350E+00  1.1382595504399E+00
124  1.2300000000000E+00 -2.5040555529294E-01  1.0766084839572E+00  1.2281668673661E+00
125  1.2400000000000E+00 -2.5055619200404E-01  1.0138891005172E+00  1.3118449854897E+00
126  1.2500000000000E+00 -2.4980884106182E-01  9.5115796673585E-01  1.3887296974305E+00
127  1.2600000000000E+00 -2.4823611056129E-01  8.8876162285645E-01  1.4583511422333E+00
128  1.2700000000000E+00 -2.4590990798363E-01  8.2703122164201E-01  1.5203411459185E+00
129  1.2800000000000E+00 -2.4290091782116E-01  7.6627880980958E-01  1.5744386551597E+00
130  1.2900000000000E+00 -2.3927802186561E-01  7.0679350830256E-01  1.6204926947728E+00
131  1.3000000000000E+00 -2.3510765831664E-01  6.4883765758486E-01  1.6584621631172E+00
132  1.3100000000000E+00 -2.3045312167604E-01  5.9264302762978E-01  1.6884116420027E+00
133  1.3200000000000E+00 -2.2537381313284E-01  5.3840723348009E-01  1.7105022389631E+00
134  1.3300000000000E+00 -2.1992446112294E-01  4.8629054737872E-01  1.7249762964387E+00
135  1.3400000000000E+00 -2.1415434436043E-01  4.3641335895349E-01  1.7321345899601E+00
136  1.3500000000000E+00 -2.0810656772104E-01  3.8885462119352E-01  1.7323045174427E+00
137  1.3600000000000E+00 -2.0181743905459E-01  3.4365158252070E-01  1.7257965007198E+00
138  1.3700000000000E+00 -1.9531661112001E-01  3.0080444033331E-01  1.7128759947168E+00
139  1.3800000000000E+00 -1.8862907496126E-01  2.6029013030730E-01  1.6938174729007E+00
140  1.3900000000000E+00 -1.8177655524561E-01  2.2207002033395E-01  1.6689394983102E+00
141  1.4000000000000E+00 -1.7477801565559E-01  1.8609186062995E-01  1.6385992919892E+00
142  1.4100000000000E+00 -1.6765018531087E-01  1.5229189016846E-01  1.6031876696299E+00
143  1.4200000000000E+00 -1.6040807418413E-01  1.2059691695388E-01  1.5631234833145E+00
144  1.4300000000000E+00 -1.5306547631141E-01  9.0926392417059E-02  1.5188479992204E+00
145  1.4400000000000E+00 -1.4563545138361E-01  6.3194444193992E-02  1.4708192684264E+00
146  1.4500000000000E+00 -1.3813077625857E-01  3.7311836120099E-02  1.4195065587842E+00
147  1.4600000000000E+00 -1.3056435871477E-01  1.3187826846762E-02  1.3653849148665E+00
148  1.4700000000000E+00 -1.2294960661273E-01 -9.2680988655844E-03  1.3089299088331E+00
149  1.4800000000000E+00 -1.1530074658767E-01 -3.0144649121681E-02  1.2506126405971E+00
150  1.4900000000000E+00 -1.0763308742373E-01 -4.9527313830367E-02  1.1908950398832E+00
151  1.5000000000000E+00 -9.9963224359582E-02 -6.7497139823257E-02  1.1302255170280E+00
152  1.5100000000000E+00 -9.2309181716462E-02 -8.4129704736047E-02  1.0690350029902E+00
153  1.5200000000000E+00 -8.4690492405222E-02 -9.9494298488093E-02  1.0077334118540E+00
154  1.5300000000000E+00 -7.7128214044117E-02 -1.1365331742300E-01  9.4670655250312E-01
155  1.5400000000000E+00 -6.9644882577254E-02 -1.2666187239369E-01  8.8631350845114E-01
156  1.5500000000000E+00 -6.2264405413673E-02 -1.3856760838812E-01  8.2688449787616E-01
157  1.5600000000000E+00 -5.5011897191579E-02 -1.4941072968271E-01  7.6871921819161E-01
158  1.5700000000000E+00 -4.7913462283059E-02 -1.5922422115566E-01  7.1208567301826E-01
159  1.5800000000000E+00 -4.0995929096616E-02 -1.6803425316443E-01  6.5721947193212E-01
160  1.5900000000000E+00 -3.4286542075849E-02 -1.7586075450220E-01  6.0432358723655E-01
161  1.6000000000000E+00 -2.7812618025563E-02 -1.8271813536504E-01  5.5356854607948E-01
162  1.6100000000000E+00 -2.1601174024113E-02 -1.8861613995202E-01  5.0509303026283E-01
163  1.6200000000000E+00 -1.5678534667832E-02 -1.9356080648570E-01  4.5900485163751E-01
164  1.6300000000000E+00 -1.0069926759775E-02 -1.9755551092491E-01  4.1538226645078E-01
165  1.6400000000000E+00 -4.7990697772650E-03 -2.0060206958875E-01  3.7427558857767E-01
166  1.6500000000000E+00  1.1222945538189E-04 -2.0270187523237E-01  3.3570905853451E-01
167  1.6600000000000E+00  4.6444695247097E-03 -2.0385704094858E-01  2.9968292342193E-01
168  1.6700000000000E+00  8.7808264418816E-03 -2.0407152646970E-01  2.6617568153567E-01
169  1.6800000000000E+00  1.2507497056597E-02 -2.0335222204064E-01  2.3514644464377E-01
170  1.6900000000000E+00  1.5814006483465E-02 -2.0170996615002E-01  2.0653737163410E-01
171  1.7000000000000E+00  1.8693472725207E-02 -1.9916047481095E-01  1.8027612805830E-01
172  1.7100000000000E+00  2.1142822351882E-02 -1.9572516180877E-01  1.5627832749116E-01
173  1.7200000000000E+00  2.3162951907854E-02 -1.9143183157802E-01  1.3444991370046E-01
174  1.7300000000000E+00  2.4758830566456E-02 -1.8631522863889E-01  1.1468944486797E-01
175  1.7400000000000E+00  2.5939540525603E-02 -1.8041743030346E-01  9.6890245274787E-02
176  1.7500000000000E+00  2.6718252618890E-02 -1.7378807209522E-01  8.0942393247935E-02
177  1.7600000000000E+00  2.7112135687414E-02 -1.6648439844526E-01  6.6734519056628E-02
178  1.7700000000000E+00  2.7142199327330E-02 -1.5857113432334E-01  5.4155391011794E-02
179  1.7800000000000E+00  2.6833070696931E-02 -1.5012017656555E-01  4.3095272602167E-02
180  1.7900000000000E+00  2.6212707165615E-02 -1.4121010694805E-01  3.3447039042964E-02
181  1.8000000000000E+00  2.5312047620030E-02 -1.3192553210277E-01  2.5107046326387E-02
182  1.8100000000000E+00  2.4164606312275E-02 -1.2235625867157E-01  1.7975751946767E-02
183  1.8200000000000E+00  2.2806013814581E-02 -1.1259631375263E-01  1.1958086553703E-02
184  1.8300000000000E+00  2.1273511185399E-02 -1.0274282635048E-01  6.9635921166121E-03
185  1.8400000000000E+00  1.9605403945036E-02 -9.2894786641699E-02  2.9063412702083E-03
186  1.8500000000000E+00  1.7840480683991E-02 -8.3151690917340E-02 -2.9538732072583E-04
187  1.8600000000000E+00  1.6017409093195E-02 -7.3612115125961E-02 -2.7195686439079E-03
188  1.8700000000000E+00  1.4174129486064E-02 -6.4372266867237E-02 -4.4410041403760E-03
189  1.8800000000000E+00  1.2347070837786E-02 -5.5523986035511E-02 -5.5329533493478E-03
190  1.8900000000000E+00  1.0571011299617E-02 -4.7154685230656E-02 -6.0653281382185E-03
191  1.9000000000000E+00  8.8774522942100E-03 -3.9342765589422E-02 -6.1112085475977E-03
192  1.9100000000000E+00  7.2799950748931E-03 -3.2113474402074E-02 -5.8250967997988E-03
193  1.9200000000000E+00  5.7865191768671E-03 -2.5476173265307E-02 -5.3737242810371E-03
194  1.9300000000000E+00  4.4294937721352E-03 -1.9516762747477E-02 -4.7671770034644E-03
195  1.9400000000000E+00  3.2339984606587E-03 -1.4300835410523E-02 -4.0332955864506E-03
196  1.9500000000000E+00  2.2188763598452E-03 -9.8773810864144E-03 -3.2097712435118E-03
197  1.9600000000000E+00  1.3959403836142E-03 -6.2765540286125E-03 -2.3471966760610E-03
198  1.9700000000000E+00  7.6985844763713E-04 -3.5098533424275E-03 -1.5103568296386E-03
199  1.9800000000000E+00  3.3615549915079E-04 -1.5607113281870E-03 -7.7258348151153E-04
200  1.9900000000000E+00  8.7605208743346E-05 -4.1694227283175E-04 -2.3996500020471E-04
201  2.0000000000000E+00  2.1485539710088E-06 -1.1140427437467E-05 -1.0460897006344E-05
202  2.0100000000000E+00 -2.5160134834237E-06  1.2332149978096E-05  7.8547800086056E-06
203  2.0200000000000E+00  1.3930497223494E-06 -6.6969341944319E-06 -3.9350227582240E-06
204  2.03 -0.  0.  0.
205  2.04  0. -0.  0.
206  2.05  0.  0.  0.
207  2.06  0.  0.  0.
208  2.07  0.  0.  0.
209  2.08  0.  0.  0.
210  2.09  0.  0.  0.
211  2.10  0.  0.  0.
212  2.11  0.  0.  0.
213  2.12  0.  0.  0.
214  2.13  0.  0.  0.
215  2.14  0.  0.  0.
216  2.15  0.  0.  0.
217  2.16  0.  0.  0.
218  2.17  0.  0.  0.
219  2.18  0.  0.  0.
220  2.19  0.  0.  0.
221  2.20  0.  0.  0.
222  2.21  0.  0.  0.
223  2.22  0.  0.  0.
224  2.23  0.  0.  0.
225  2.24  0.  0.  0.
226  2.25  0.  0.  0.
227  2.26  0.  0.  0.
228  2.27  0.  0.  0.
229  2.28  0.  0.  0.
230  2.29  0.  0.  0.
231  2.30  0.  0.  0.
232  2.31  0.  0.  0.
233  2.32  0.  0.  0.
234  2.33  0.  0.  0.
235  2.34  0.  0.  0.
236  2.35  0.  0.  0.
237  2.36  0.  0.  0.
238  2.37  0.  0.  0.
239  2.38  0.  0.  0.
240  2.39  0.  0.  0.
241  2.40  0.  0.  0.
242  2.41  0.  0.  0.
243  2.42  0.  0.  0.
244  2.43  0.  0.  0.
245  2.44  0.  0.  0.
246  2.45  0.  0.  0.
247  2.46  0.  0.  0.
248  2.47  0.  0.  0.
249  2.48  0.  0.  0.
250  2.49  0.  0.  0.
251  2.50  0.  0.  0.
252  2.51  0.  0.  0.
253  2.52  0.  0.  0.
254  2.53  0.  0.  0.
255  2.54  0.  0.  0.
256  2.55  0.  0.  0.
257  2.56  0.  0.  0.
258  2.57  0.  0.  0.
259  2.58  0.  0.  0.
260  2.59  0.  0.  0.
261  2.60  0.  0.  0.
262  2.61  0.  0.  0.
263  2.62  0.  0.  0.
264  2.63  0.  0.  0.
265  2.64  0.  0.  0.
266  2.65  0.  0.  0.
267  2.66  0.  0.  0.
268  2.67  0.  0.  0.
269  2.68  0.  0.  0.
270  2.69  0.  0.  0.
271  2.70  0.  0.  0.
272  2.71  0.  0.  0.
273  2.72  0.  0.  0.
274  2.73  0.  0.  0.
275  2.74  0.  0.  0.
276  2.75  0.  0.  0.
277  2.76  0.  0.  0.
278  2.77  0.  0.  0.
279  2.78  0.  0.  0.
280  2.79  0.  0.  0.
281  2.80  0.  0.  0.
282  2.81  0.  0.  0.
283  2.82  0.  0.  0.
284  2.83  0.  0.  0.
285  2.84  0.  0.  0.
286  2.85  0.  0.  0.
287  2.86  0.  0.  0.
288  2.87  0.  0.  0.
289  2.88  0.  0.  0.
290  2.89  0.  0.  0.
291  2.90  0.  0.  0.
292  2.91  0.  0.  0.
293  2.92  0.  0.  0.
294  2.93  0.  0.  0.
295  2.94  0.  0.  0.
296  2.95  0.  0.  0.
297  2.96  0.  0.  0.
298  2.97  0.  0.  0.
299  2.98  0.  0.  0.
300  2.99  0.  0.  0.
301  3.00  0.  0.  0.
302  3.01  0.  0.  0.
303  3.02  0.  0.  0.
304  3.03  0.  0.  0.
305  3.04  0.  0.  0.
306  3.05  0.  0.  0.
307  3.06  0.  0.  0.
308  3.07  0.  0.  0.
309  3.08  0.  0.  0.
310  3.09  0.  0.  0.
311  3.10  0.  0.  0.
312  3.11  0.  0.  0.
313  3.12  0.  0.  0.
314  3.13  0.  0.  0.
315  3.14  0.  0.  0.
316  3.15  0.  0.  0.
317  3.16  0.  0.  0.
318  3.17  0.  0.  0.
319  3.18  0.  0.  0.
320  3.19  0.  0.  0.
321  3.20  0.  0.  0.
322  3.21  0.  0.  0.
323  3.22  0.  0.  0.
324  3.23  0.  0.  0.
325  3.24  0.  0.  0.
326  3.25  0.  0.  0.
327  3.26  0.  0.  0.
328  3.27  0.  0.  0.
329  3.28  0.  0.  0.
330  3.29  0.  0.  0.
331  3.30  0.  0.  0.
332  3.31  0.  0.  0.
333  3.32  0.  0.  0.
334  3.33  0.  0.  0.
335  3.34  0.  0.  0.
336  3.35  0.  0.  0.
337  3.36  0.  0.  0.
338  3.37  0.  0.  0.
339  3.38  0.  0.  0.
340  3.39  0.  0.  0.
341  3.40  0.  0.  0.
342  3.41  0.  0.  0.
343  3.42  0.  0.  0.
344  3.43  0.  0.  0.
345  3.44  0.  0.  0.
346  3.45  0.  0.  0.
347  3.46  0.  0.  0.
348  3.47  0.  0.  0.
349  3.48  0.  0.  0.
350  3.49  0.  0.  0.
351  3.50  0.  0.  0.
352  3.51  0.  0.  0.
353  3.52  0.  0.  0.
354  3.53  0.  0.  0.
355  3.54  0.  0.  0.
356  3.55  0.  0.  0.
357  3.56  0.  0.  0.
358  3.57  0.  0.  0.
359  3.58  0.  0.  0.
360  3.59  0.  0.  0.
361  3.60  0.  0.  0.
362  3.61  0.  0.  0.
363  3.62  0.  0.  0.
364  3.63  0.  0.  0.
365  3.64  0.  0.  0.
366  3.65  0.  0.  0.
367  3.66  0.  0.  0.
368  3.67  0.  0.  0.
369  3.68  0.  0.  0.
370  3.69  0.  0.  0.
371  3.70  0.  0.  0.
372  3.71  0.  0.  0.
373  3.72  0.  0.  0.
374  3.73  0.  0.  0.
375  3.74  0.  0.  0.
376  3.75  0.  0.  0.
377  3.76  0.  0.  0.
378  3.77  0.  0.  0.
379  3.78  0.  0.  0.
380  3.79  0.  0.  0.
381  3.80  0.  0.  0.
382  3.81  0.  0.  0.
383  3.82  0.  0.  0.
384  3.83  0.  0.  0.
385  3.84  0.  0.  0.
386  3.85  0.  0.  0.
387  3.86  0.  0.  0.
388  3.87  0.  0.  0.
389  3.88  0.  0.  0.
390  3.89  0.  0.  0.
391  3.90  0.  0.  0.
392  3.91  0.  0.  0.
393  3.92  0.  0.  0.
394  3.93  0.  0.  0.
395  3.94  0.  0.  0.
396  3.95  0.  0.  0.
397  3.96  0.  0.  0.
398  3.97  0.  0.  0.
399  3.98  0.  0.  0.
400  3.99  0.  0.  0.
401  4.00  0.  0.  0.
402  4.01  0.  0.  0.
403  4.02  0.  0.  0.
404  4.03  0.  0.  0.
405  4.04  0.  0.  0.
406  4.05  0.  0.  0.
407  4.06  0.  0.  0.
408  4.07  0.  0.  0.
409  4.08  0.  0.  0.
410  4.09  0.  0.  0.
411  4.10  0.  0.  0.
412  4.11  0.  0.  0.
413  4.12  0.  0.  0.
414  4.13  0.  0.  0.
415  4.14  0.  0.  0.
416  4.15  0.  0.  0.
417  4.16  0.  0.  0.
418  4.17  0.  0.  0.
419  4.18  0.  0.  0.
420  4.19  0.  0.  0.
421  4.20  0.  0.  0.
422  4.21  0.  0.  0.
423  4.22  0.  0.  0.
424  4.23  0.  0.  0.
425  4.24  0.  0.  0.
426  4.25  0.  0.  0.
427  4.26  0.  0.  0.
428  4.27  0.  0.  0.
429  4.28  0.  0.  0.
430  4.29  0.  0.  0.
431  4.30  0.  0.  0.
432  4.31  0.  0.  0.
433  4.32  0.  0.  0.
434  4.33  0.  0.  0.
435  4.34  0.  0.  0.
436  4.35  0.  0.  0.
437  4.36  0.  0.  0.
438  4.37  0.  0.  0.
439  4.38  0.  0.  0.
440  4.39  0.  0.  0.
441  4.40  0.  0.  0.
442  4.41  0.  0.  0.
443  4.42  0.  0.  0.
444  4.43  0.  0.  0.
445  4.44  0.  0.  0.
446  4.45  0.  0.  0.
447  4.46  0.  0.  0.
448  4.47  0.  0.  0.
449  4.48  0.  0.  0.
450  4.49  0.  0.  0.
451  4.50  0.  0.  0.
452  4.51  0.  0.  0.
453  4.52  0.  0.  0.
454  4.53  0.  0.  0.
455  4.54  0.  0.  0.
456  4.55  0.  0.  0.
457  4.56  0.  0.  0.
458  4.57  0.  0.  0.
459  4.58  0.  0.  0.
460  4.59  0.  0.  0.
461  4.60  0.  0.  0.
462  4.61  0.  0.  0.
463  4.62  0.  0.  0.
464  4.63  0.  0.  0.
465  4.64  0.  0.  0.
466  4.65  0.  0.  0.
467  4.66  0.  0.  0.
468  4.67  0.  0.  0.
469  4.68  0.  0.  0.
470  4.69  0.  0.  0.
471  4.70  0.  0.  0.
472  4.71  0.  0.  0.
473  4.72  0.  0.  0.
474  4.73  0.  0.  0.
475  4.74  0.  0.  0.
476  4.75  0.  0.  0.
477  4.76  0.  0.  0.
478  4.77  0.  0.  0.
479  4.78  0.  0.  0.
480  4.79  0.  0.  0.
481  4.80  0.  0.  0.
482  4.81  0.  0.  0.
483  4.82  0.  0.  0.
484  4.83  0.  0.  0.
485  4.84  0.  0.  0.
486  4.85  0.  0.  0.
487  4.86  0.  0.  0.
488  4.87  0.  0.  0.
489  4.88  0.  0.  0.
490  4.89  0.  0.  0.
491  4.90  0.  0.  0.
492  4.91  0.  0.  0.
493  4.92  0.  0.  0.
494  4.93  0.  0.  0.
495  4.94  0.  0.  0.
496  4.95  0.  0.  0.
497  4.96  0.  0.  0.
498  4.97  0.  0.  0.
499  4.98  0.  0.  0.
500  4.99  0.  0.  0.
501  5.00  0.  0.  0.
502  5.01  0.  0.  0.
503  5.02  0.  0.  0.
504  5.03  0.  0.  0.
505  5.04  0.  0.  0.
506  5.05  0.  0.  0.
507  5.06  0.  0.  0.
508  5.07  0.  0.  0.
509  5.08  0.  0.  0.
510  5.09  0.  0.  0.
511  5.10  0.  0.  0.
512  5.11  0.  0.  0.
513  5.12  0.  0.  0.
514  5.13  0.  0.  0.
515  5.14  0.  0.  0.
516  5.15  0.  0.  0.
517  5.16  0.  0.  0.
518  5.17  0.  0.  0.
519  5.18  0.  0.  0.
520  5.19  0.  0.  0.
521  5.20  0.  0.  0.
522  5.21  0.  0.  0.
523  5.22  0.  0.  0.
524  5.23  0.  0.  0.
525  5.24  0.  0.  0.
526  5.25  0.  0.  0.
527  5.26  0.  0.  0.
528  5.27  0.  0.  0.
529  5.28  0.  0.  0.
530  5.29  0.  0.  0.
531  5.30  0.  0.  0.
532  5.31  0.  0.  0.
533  5.32  0.  0.  0.
534  5.33  0.  0.  0.
535  5.34  0.  0.  0.
536  5.35  0.  0.  0.
537  5.36  0.  0.  0.
538  5.37  0.  0.  0.
539  5.38  0.  0.  0.
540  5.39  0.  0.  0.
541  5.40  0.  0.  0.
542  5.41  0.  0.  0.
543  5.42  0.  0.  0.
544  5.43  0.  0.  0.
545  5.44  0.  0.  0.
546  5.45  0.  0.  0.
547  5.46  0.  0.  0.
548  5.47  0.  0.  0.
549  5.48  0.  0.  0.
550  5.49  0.  0.  0.
551  5.50  0.  0.  0.
552  5.51  0.  0.  0.
553  5.52  0.  0.  0.
554  5.53  0.  0.  0.
555  5.54  0.  0.  0.
556  5.55  0.  0.  0.
557  5.56  0.  0.  0.
558  5.57  0.  0.  0.
559  5.58  0.  0.  0.
560  5.59  0.  0.  0.
561  5.60  0.  0.  0.
562  5.61  0.  0.  0.
563  5.62  0.  0.  0.
564  5.63  0.  0.  0.
565  5.64  0.  0.  0.
566  5.65  0.  0.  0.
567  5.66  0.  0.  0.
568  5.67  0.  0.  0.
569  5.68  0.  0.  0.
570  5.69  0.  0.  0.
571  5.70  0.  0.  0.
572  5.71  0.  0.  0.
573  5.72  0.  0.  0.
574  5.73  0.  0.  0.
575  5.74  0.  0.  0.
576  5.75  0.  0.  0.
577  5.76  0.  0.  0.
578  5.77  0.  0.  0.
579  5.78  0.  0.  0.
580  5.79  0.  0.  0.
581  5.80  0.  0.  0.
582  5.81  0.  0.  0.
583  5.82  0.  0.  0.
584  5.83  0.  0.  0.
585  5.84  0.  0.  0.
586  5.85  0.  0.  0.
587  5.86  0.  0.  0.
588  5.87  0.  0.  0.
589  5.88  0.  0.  0.
590  5.89  0.  0.  0.
591  5.90  0.  0.  0.
592  5.91  0.  0.  0.
593  5.92  0.  0.  0.
594  5.93  0.  0.  0.
595  5.94  0.  0.  0.
596  5.95  0.  0.  0.
597  5.96  0.  0.  0.
598  5.97  0.  0.  0.
599  5.98  0.  0.  0.
600  5.99  0.  0.  0.
1                         6.3985957633753E+00  7.4287675826332E-01
1  0.0000000000000E+00  1.0729032690060E-08 -4.3589789500142E-08
2  1.0000000000000E-02  1.2112075234164E-03 -2.6340750295077E-03
3  2.0000000000000E-02  4.8289126063009E-03 -1.0474061613986E-02
4  3.0000000000000E-02  1.0805679893824E-02 -2.3334538634713E-02
5  4.0000000000000E-02  1.9063501172471E-02 -4.0910759914562E-02
6  5.0000000000000E-02  2.9495349462631E-02 -6.2784998554931E-02
7  6.0000000000000E-02  4.1967311234433E-02 -8.8435252373667E-02
8  7.0000000000000E-02  5.6321254239025E-02 -1.1724613787120E-01
9  8.0000000000000E-02  7.2377977718443E-02 -1.4852175656226E-01
10  9.0000000000000E-02  8.9940782054028E-02 -1.8150027806275E-01
11  1.0000000000000E-01  1.0879938642414E-01 -2.1536994977534E-01
12  1.1000000000000E-01  1.2873411593277E-01 -2.4928621404505E-01
13  1.2000000000000E-01  1.4952027408115E-01 -2.8238959082198E-01
14  1.3000000000000E-01  1.7093261249688E-01 -3.1382396762663E-01
15  1.4000000000000E-01  1.9274980758950E-01 -3.4275492929089E-01
16  1.5000000000000E-01  2.1475885331765E-01 -3.6838775774619E-01
17  1.6000000000000E-01  2.3675928054630E-01 -3.8998473711412E-01
18  1.7000000000000E-01  2.5856711652447E-01 -4.0688141145501E-01
19  1.8000000000000E-01  2.8001850277439E-01 -4.1850146154339E-01
20  1.9000000000000E-01  3.0097289606702E-01 -4.2436989262895E-01
21  2.0000000000000E-01  3.2131578505178E-01 -4.2412425684858E-01
22  2.1000000000000E-01  3.4096086436594E-01 -4.1752367119905E-01
23  2.2000000000000E-01  3.5985161850042E-01 -4.0445543407624E-01
24  2.3000000000000E-01  3.7796227914912E-01 -3.8493908955233E-01
25  2.4000000000000E-01  3.9529813200391E-01 -3.5912783793664E-01
26  2.5000000000000E-01  4.1189516174624E-01 -3.2730724281764E-01
27  2.6000000000000E-01  4.2781903708591E-01 -2.8989123773860E-01
28  2.7000000000000E-01  4.4316345085783E-01 -2.4741548890731E-01
29  2.8000000000000E-01  4.5804784315486E-01 -2.0052822286237E-01
30  2.9000000000000E-01  4.7261454799843E-01 -1.4997867880002E-01
31  3.0000000000000E-01  4.8702541588219E-01 -9.6603393320407E-02
32  3.1000000000000E-01  5.0145797543583E-01 -4.1310569735207E-02
33  3.2000000000000E-01  5.1610120722604E-01  1.4937176089165E-02
34  3.3000000000000E-01  5.3115101114326E-01  7.1141366899172E-02
35  3.4000000000000E-01  5.4680545574085E-01  1.2628715735850E-01
36  3.5000000000000E-01  5.6325990315091E-01  1.7936339284922E-01
37  3.6000000000000E-01  5.8070210668154E-01  2.2938284249488E-01
38  3.7000000000000E-01  5.9930737982026E-01  2.7540220796919E-01
39  3.8000000000000E-01  6.1923393507764E-01  3.1654151017064E-01
40  3.9000000000000E-01  6.4061848889162E-01  3.5200246409810E-01
41  4.0000000000000E-01  6.6357222469952E-01  3.8108546816731E-01
42  4.1000000000000E-01  6.8817720033123E-01  4.0320485753038E-01
43  4.2000000000000E-01  7.1448327817964E-01  4.1790210132012E-01
44  4.3000000000000E-01  7.4250564729280E-01  4.2485666062386E-01
45  4.4000000000000E-01  7.7222299576928E-01  4.2389426675012E-01
46  4.5000000000000E-01  8.0357637981563E-01  4.1499242722017E-01