Nd    ONCVPSP-4.0.1  r_core=   2.00095   1.60366   1.80747   1.40590
60.0000     14.0000      221106    zatom,zion,pspd
8      11   3     4   600     0    pspcod,pspxc,lmax,lloc,mmax,r2well
5.99000000  0.25000000  0.00000000    rchrg fchrg qchrg
2     2     2     2     0    nproj
1     1           extension_switch
0                         8.2803171686392E+00  8.4454903876260E-01
1  0.0000000000000E+00  5.9031390886588E-11 -1.7822347417318E-10
2  1.0000000000000E-02  2.8927693765547E-02 -2.6500662058148E-03
3  2.0000000000000E-02  5.7869570457377E-02 -5.3521623434319E-03
4  3.0000000000000E-02  8.6839557067386E-02 -8.1577414022575E-03
5  4.0000000000000E-02  1.1585107070481E-01 -1.1117107631482E-02
6  5.0000000000000E-02  1.4491676860512E-01 -1.4278854985908E-02
7  6.0000000000000E-02  1.7404830403728E-01 -1.7689320823927E-02
8  7.0000000000000E-02  2.0325609000573E-01 -2.1392059731265E-02
9  8.0000000000000E-02  2.3254907258469E-01 -2.5427342165901E-02
10  9.0000000000000E-02  2.6193451564922E-01 -2.9831682399844E-02
11  1.0000000000000E-01  2.9141779868129E-01 -3.4637399973737E-02
12  1.1000000000000E-01  3.2100222923005E-01 -3.9872218582990E-02
13  1.2000000000000E-01  3.5068887149438E-01 -4.5558905981667E-02
14  1.3000000000000E-01  3.8047639237368E-01 -5.1714958125734E-02
15  1.4000000000000E-01  4.1036092620044E-01 -5.8352330383315E-02
16  1.5000000000000E-01  4.4033595922633E-01 -6.5477218220010E-02
17  1.6000000000000E-01  4.7039223478380E-01 -7.3089889325390E-02
18  1.7000000000000E-01  5.0051767988833E-01 -8.1184568686610E-02
19  1.8000000000000E-01  5.3069735388362E-01 -8.9749377640603E-02
20  1.9000000000000E-01  5.6091341956478E-01 -9.8766327451255E-02
21  2.0000000000000E-01  5.9114513704377E-01 -1.0821136746754E-01
22  2.1000000000000E-01  6.2136888044897E-01 -1.1805448742591E-01
23  2.2000000000000E-01  6.5155817737691E-01 -1.2825987297106E-01
24  2.3000000000000E-01  6.8168377084197E-01 -1.3878611298608E-01
25  2.4000000000000E-01  7.1171370329872E-01 -1.4958645685291E-01
26  2.5000000000000E-01  7.4161342214449E-01 -1.6060911930829E-01
27  2.6000000000000E-01  7.7134590594658E-01 -1.7179763012566E-01
28  2.7000000000000E-01  8.0087181048211E-01 -1.8309122544242E-01
29  2.8000000000000E-01  8.3014963352838E-01 -1.9442527716887E-01
30  2.9000000000000E-01  8.5913589720021E-01 -2.0573175656396E-01
31  3.0000000000000E-01  8.8778534649920E-01 -2.1693972774633E-01
32  3.1000000000000E-01  9.1605116261764E-01 -2.2797586663129E-01
33  3.2000000000000E-01  9.4388518943067E-01 -2.3876500054709E-01
34  3.3000000000000E-01  9.7123817151202E-01 -2.4923066359015E-01
35  3.4000000000000E-01  9.9806000192441E-01 -2.5929566263105E-01
36  3.5000000000000E-01  1.0242999779656E+00 -2.6888264878240E-01
37  3.6000000000000E-01  1.0499070629940E+00 -2.7791468908759E-01
38  3.7000000000000E-01  1.0748301524175E+00 -2.8631583318710E-01
39  3.8000000000000E-01  1.0990183419027E+00 -2.9401166976665E-01
40  3.9000000000000E-01  1.1224211958510E+00 -3.0092986768879E-01
41  4.0000000000000E-01  1.1449890141940E+00 -3.0700069685645E-01
42  4.1000000000000E-01  1.1666730955809E+00 -3.1215752405281E-01
43  4.2000000000000E-01  1.1874259950650E+00 -3.1633727924410E-01
44  4.3000000000000E-01  1.2072017744523E+00 -3.1948088811968E-01
45  4.4000000000000E-01  1.2259562435337E+00 -3.2153366697471E-01
46  4.5000000000000E-01  1.2436471905112E+00 -3.2244567641150E-01
47  4.6000000000000E-01  1.2602346000135E+00 -3.2217203074311E-01
48  4.7000000000000E-01  1.2756808572092E+00 -3.2067316042414E-01
49  4.8000000000000E-01  1.2899509366413E+00 -3.1791502530458E-01
50  4.9000000000000E-01  1.3030125745347E+00 -3.1386927699751E-01
51  5.0000000000000E-01  1.3148364234705E+00 -3.0851336916900E-01
52  5.1000000000000E-01  1.3253961884658E+00 -3.0183061508981E-01
53  5.2000000000000E-01  1.3346687436542E+00 -2.9381019233227E-01
54  5.3000000000000E-01  1.3426342289227E+00 -2.8444709504404E-01
55  5.4000000000000E-01  1.3492761260278E+00 -2.7374203477942E-01
56  5.5000000000000E-01  1.3545813138814E+00 -2.6170129141285E-01
57  5.6000000000000E-01  1.3585401028710E+00 -2.4833651619254E-01
58  5.7000000000000E-01  1.3611462482485E+00 -2.3366448950959E-01
59  5.8000000000000E-01  1.3623969427946E+00 -2.1770683645448E-01
60  5.9000000000000E-01  1.3622927891354E+00 -2.0048970370279E-01
61  6.0000000000000E-01  1.3608377522506E+00 -1.8204340171078E-01
62  6.1000000000000E-01  1.3580390928776E+00 -1.6240201660449E-01
63  6.2000000000000E-01  1.3539072826652E+00 -1.4160299650829E-01
64  6.3000000000000E-01  1.3484559020812E+00 -1.1968671737736E-01
65  6.4000000000000E-01  1.3417015222135E+00 -9.6696033667558E-02
66  6.5000000000000E-01  1.3336635717341E+00 -7.2675819395704E-02
67  6.6000000000000E-01  1.3243641904120E+00 -4.7672505306076E-02
68  6.7000000000000E-01  1.3138280706658E+00 -2.1733617967369E-02
69  6.8000000000000E-01  1.3020822887415E+00  5.0926733279684E-03
70  6.9000000000000E-01  1.2891561271786E+00  3.2757996000614E-02
71  7.0000000000000E-01  1.2750808902947E+00  6.1214194168748E-02
72  7.1000000000000E-01  1.2598897144687E+00  9.0413723524650E-02
73  7.2000000000000E-01  1.2436173750400E+00  1.2031001564215E-01
74  7.3000000000000E-01  1.2263000916623E+00  1.5085780650875E-01
75  7.4000000000000E-01  1.2079753339542E+00  1.8201342438965E-01
76  7.5000000000000E-01  1.1886816292829E+00  2.1373503250215E-01
77  7.6000000000000E-01  1.1684583744881E+00  2.4598282240491E-01
78  7.7000000000000E-01  1.1473456533149E+00  2.7871915448547E-01
79  7.8000000000000E-01  1.1253840612691E+00  3.1190864245791E-01
80  7.9000000000000E-01  1.1026145395353E+00  3.4551817935650E-01
81  8.0000000000000E-01  1.0790782195148E+00  3.7951690312912E-01
82  8.1000000000000E-01  1.0548162794396E+00  4.1387610058863E-01
83  8.2000000000000E-01  1.0298698144057E+00  4.4856904917124E-01
84  8.3000000000000E-01  1.0042797210396E+00  4.8357079666972E-01
85  8.4000000000000E-01  9.7808659787557E-01  5.1885787985512E-01
86  8.5000000000000E-01  9.5133066236484E-01  5.5440798366531E-01
87  8.6000000000000E-01  9.2405168527482E-01  5.9019954342082E-01
88  8.7000000000000E-01  8.9628894306062E-01  6.2621129331997E-01
89  8.8000000000000E-01  8.6808118860331E-01  6.6242176526404E-01
90  8.9000000000000E-01  8.3946664051277E-01  6.9880874286151E-01
91  9.0000000000000E-01  8.1048299098561E-01  7.3534867625601E-01
92  9.1000000000000E-01  7.8116743199273E-01  7.7201606420813E-01
93  9.2000000000000E-01  7.5155669934713E-01  8.0878281063193E-01
94  9.3000000000000E-01  7.2168713397009E-01  8.4561756353936E-01
95  9.4000000000000E-01  6.9159475943549E-01  8.8248504507097E-01
96  9.5000000000000E-01  6.6131537462755E-01  9.1934538198661E-01
97  9.6000000000000E-01  6.3088466009749E-01  9.5615344664765E-01
98  9.7000000000000E-01  6.0033829645233E-01  9.9285821913562E-01
99  9.8000000000000E-01  5.6971209285320E-01  1.0294021817155E+00
100  9.9000000000000E-01  5.3904212344551E-01  1.0657207573556E+00
101  1.0000000000000E+00  5.0836486928871E-01  1.1017418044538E+00
102  1.0100000000000E+00  4.7771736310261E-01  1.1373851802776E+00
103  1.0200000000000E+00  4.4713733390292E-01  1.1725623859004E+00
104  1.0300000000000E+00  4.1666334836311E-01  1.2071763055883E+00
105  1.0400000000000E+00  3.8633494551726E-01  1.2411210536481E+00
106  1.0500000000000E+00  3.5619276121210E-01  1.2742819416841E+00
107  1.0600000000000E+00  3.2627863853224E-01  1.3065355789904E+00
108  1.0700000000000E+00  2.9663572026374E-01  1.3377501184319E+00
109  1.0800000000000E+00  2.6730851933548E-01  1.3677856595966E+00
110  1.0900000000000E+00  2.3834296309071E-01  1.3964948202307E+00
111  1.1000000000000E+00  2.0978640720082E-01  1.4237234859525E+00
112  1.1100000000000E+00  1.8168761504714E-01  1.4493117469637E+00
113  1.1200000000000E+00  1.5409669847561E-01  1.4730950288982E+00
114  1.1300000000000E+00  1.2706501598012E-01  1.4949054230376E+00
115  1.1400000000000E+00  1.0064502460945E-01  1.5145732188319E+00
116  1.1500000000000E+00  7.4890082225402E-02  1.5319286389688E+00
117  1.1600000000000E+00  4.9854197187492E-02  1.5468037740562E+00
118  1.1700000000000E+00  2.5591723106577E-02  1.5590347103197E+00
119  1.1800000000000E+00  2.1569970234249E-03  1.5684638394514E+00
120  1.1900000000000E+00 -2.0396079768458E-02  1.5749423348933E+00
121  1.2000000000000E+00 -4.2014517992749E-02  1.5783327732657E+00
122  1.2100000000000E+00 -6.2646772256504E-02  1.5785118733409E+00
123  1.2200000000000E+00 -8.2243325571975E-02  1.5753733178425E+00
124  1.2300000000000E+00 -1.0075732190567E-01  1.5688306152832E+00
125  1.2400000000000E+00 -1.1814524019823E-01  1.5588199500854E+00
126  1.2500000000000E+00 -1.3436760107484E-01  1.5453029591291E+00
127  1.2600000000000E+00 -1.4938969494311E-01  1.5282693616442E+00
128  1.2700000000000E+00 -1.6318231733688E-01  1.5077393569651E+00
129  1.2800000000000E+00 -1.7572249414067E-01  1.4837656908032E+00
130  1.2900000000000E+00 -1.8699417574043E-01  1.4564352754839E+00
131  1.3000000000000E+00 -1.9698887515406E-01  1.4258702328868E+00
132  1.3100000000000E+00 -2.0570622071927E-01  1.3922282103065E+00
133  1.3200000000000E+00 -2.1315438899725E-01  1.3557017993049E+00
134  1.3300000000000E+00 -2.1935037812019E-01  1.3165168655777E+00
135  1.3400000000000E+00 -2.2432007581193E-01  1.2749295737043E+00
136  1.3500000000000E+00 -2.2809806975121E-01  1.2312218644222E+00
137  1.3600000000000E+00 -2.3072714075085E-01  1.1856951134855E+00
138  1.3700000000000E+00 -2.3225737141633E-01  1.1386616703181E+00
139  1.3800000000000E+00 -2.3274479435936E-01  1.0904339409319E+00
140  1.3900000000000E+00 -2.3224949360339E-01  1.0413106332482E+00
141  1.4000000000000E+00 -2.3083308308416E-01  9.9155992592919E-01
142  1.4100000000000E+00 -2.2855535422872E-01  9.4139817325530E-01
143  1.4200000000000E+00 -2.2547217590377E-01  8.9098348206329E-01
144  1.4300000000000E+00 -2.2163862882097E-01  8.4045499636168E-01
145  1.4400000000000E+00 -2.1711105769849E-01  7.8995508329780E-01
146  1.4500000000000E+00 -2.1194677628334E-01  7.3962803601893E-01
147  1.4600000000000E+00 -2.0620383060381E-01  6.8961943963805E-01
148  1.4700000000000E+00 -1.9994073100266E-01  6.4007527503969E-01
149  1.4800000000000E+00 -1.9321617831618E-01  5.9114100907574E-01
150  1.4900000000000E+00 -1.8608878563462E-01  5.4296067028653E-01
151  1.5000000000000E+00 -1.7861679748205E-01  4.9567591498045E-01
152  1.5100000000000E+00 -1.7085780854926E-01  4.4942509116173E-01
153  1.5200000000000E+00 -1.6286848413024E-01  4.0434230789372E-01
154  1.5300000000000E+00 -1.5470428447303E-01  3.6055651814350E-01
155  1.5400000000000E+00 -1.4641919523072E-01  3.1819062303203E-01
156  1.5500000000000E+00 -1.3806546621464E-01  2.7736060563877E-01
157  1.5600000000000E+00 -1.2969336058524E-01  2.3817470221200E-01
158  1.5700000000000E+00 -1.2135091660538E-01  2.0073261876352E-01
159  1.5800000000000E+00 -1.1308372396372E-01  1.6512480049218E-01
160  1.5900000000000E+00 -1.0493471660349E-01  1.3143176130064E-01
161  1.6000000000000E+00 -9.6943983883362E-02  9.9723480288849E-02
162  1.6100000000000E+00 -8.9148601735249E-02  7.0058871438741E-02
163  1.6200000000000E+00 -8.1582485359211E-02  4.2485332312401E-02
164  1.6300000000000E+00 -7.4276264811767E-02  1.7038376859526E-02
165  1.6400000000000E+00 -6.7257184666466E-02 -6.2586432245718E-03
166  1.6500000000000E+00 -6.0549028715258E-02 -2.7394724965634E-02
167  1.6600000000000E+00 -5.4172070488820E-02 -4.6371305459223E-02
168  1.6700000000000E+00 -4.8143050146659E-02 -6.3202256036967E-02
169  1.6800000000000E+00 -4.2475178045824E-02 -7.7913778129502E-02
170  1.6900000000000E+00 -3.7178165094450E-02 -9.0544200416891E-02
171  1.7000000000000E+00 -3.2258279746489E-02 -1.0114367783386E-01
172  1.7100000000000E+00 -2.7718431240837E-02 -1.0977379398213E-01
173  1.7200000000000E+00 -2.3558278495416E-02 -1.1650706916227E-01
174  1.7300000000000E+00 -1.9774363792702E-02 -1.2142637734609E-01
175  1.7400000000000E+00 -1.6360270202458E-02 -1.2462427607910E-01
176  1.7500000000000E+00 -1.3306801443316E-02 -1.2620225426710E-01
177  1.7600000000000E+00 -1.0602182699219E-02 -1.2626990347301E-01
178  1.7700000000000E+00 -8.2322807110359E-03 -1.2494401909376E-01
179  1.7800000000000E+00 -6.1808412626508E-03 -1.2234763857603E-01
180  1.7900000000000E+00 -4.4297420446793E-03 -1.1860902430602E-01
181  1.8000000000000E+00 -2.9592587190040E-03 -1.1386059943205E-01
182  1.8100000000000E+00 -1.7483418754124E-03 -1.0823784538294E-01
183  1.8200000000000E+00 -7.7490249691159E-04 -1.0187817009035E-01
184  1.8300000000000E+00 -1.6103348831735E-05 -9.4919756809547E-02
185  1.8400000000000E+00  5.5134615483584E-04 -8.7500402693354E-02
186  1.8500000000000E+00  9.5089386071336E-04 -7.9756355296857E-02
187  1.8600000000000E+00  1.2058517596798E-03 -7.1821164579986E-02
188  1.8700000000000E+00  1.3391072407179E-03 -6.3824551295588E-02
189  1.8800000000000E+00  1.3728267353936E-03 -5.5891265363621E-02
190  1.8900000000000E+00  1.3282282524146E-03 -4.8140149385262E-02
191  1.9000000000000E+00  1.2252263029687E-03 -4.0682868485992E-02
192  1.9100000000000E+00  1.0809009819845E-03 -3.3619223939900E-02
193  1.9200000000000E+00  9.1044809362991E-04 -2.7039582176079E-02
194  1.9300000000000E+00  7.2979891987341E-04 -2.1032237474799E-02
195  1.9400000000000E+00  5.5251971798530E-04 -1.5674464336123E-02
196  1.9500000000000E+00  3.8979116260264E-04 -1.1032258021633E-02
197  1.9600000000000E+00  2.5022626131913E-04 -7.1596542489799E-03
198  1.9700000000000E+00  1.3978541139785E-04 -4.0995193273863E-03
199  1.9800000000000E+00  6.1381079060279E-05 -1.8717799996150E-03
200  1.9900000000000E+00  1.5988588163167E-05 -5.1627094375002E-04
201  2.0000000000000E+00  4.5088432906681E-07 -1.5749357752432E-05
202  2.0100000000000E+00 -4.3798481268285E-07  1.5636429077496E-05
203  2.0200000000000E+00  2.4703246843339E-07 -8.3316436978679E-06
204  2.03 -0.  0.
205  2.04 -0.  0.
206  2.05  0.  0.
207  2.06  0.  0.
208  2.07  0.  0.
209  2.08  0.  0.
210  2.09  0.  0.
211  2.10  0.  0.
212  2.11  0.  0.
213  2.12  0.  0.
214  2.13  0.  0.
215  2.14  0.  0.
216  2.15  0.  0.
217  2.16  0.  0.
218  2.17  0.  0.
219  2.18  0.  0.
220  2.19  0.  0.
221  2.20  0.  0.
222  2.21  0.  0.
223  2.22  0.  0.
224  2.23  0.  0.
225  2.24  0.  0.
226  2.25  0.  0.
227  2.26  0.  0.
228  2.27  0.  0.
229  2.28  0.  0.
230  2.29  0.  0.
231  2.30  0.  0.
232  2.31  0.  0.
233  2.32  0.  0.
234  2.33  0.  0.
235  2.34  0.  0.
236  2.35  0.  0.
237  2.36  0.  0.
238  2.37  0.  0.
239  2.38  0.  0.
240  2.39  0.  0.
241  2.40  0.  0.
242  2.41  0.  0.
243  2.42  0.  0.
244  2.43  0.  0.
245  2.44  0.  0.
246  2.45  0.  0.
247  2.46  0.  0.
248  2.47  0.  0.
249  2.48  0.  0.
250  2.49  0.  0.
251  2.50  0.  0.
252  2.51  0.  0.
253  2.52  0.  0.
254  2.53  0.  0.
255  2.54  0.  0.
256  2.55  0.  0.
257  2.56  0.  0.
258  2.57  0.  0.
259  2.58  0.  0.
260  2.59  0.  0.
261  2.60  0.  0.
262  2.61  0.  0.
263  2.62  0.  0.
264  2.63  0.  0.
265  2.64  0.  0.
266  2.65  0.  0.
267  2.66  0.  0.
268  2.67  0.  0.
269  2.68  0.  0.
270  2.69  0.  0.
271  2.70  0.  0.
272  2.71  0.  0.
273  2.72  0.  0.
274  2.73  0.  0.
275  2.74  0.  0.
276  2.75  0.  0.
277  2.76  0.  0.
278  2.77  0.  0.
279  2.78  0.  0.
280  2.79  0.  0.
281  2.80  0.  0.
282  2.81  0.  0.
283  2.82  0.  0.
284  2.83  0.  0.
285  2.84  0.  0.
286  2.85  0.  0.
287  2.86  0.  0.
288  2.87  0.  0.
289  2.88  0.  0.
290  2.89  0.  0.
291  2.90  0.  0.
292  2.91  0.  0.
293  2.92  0.  0.
294  2.93  0.  0.
295  2.94  0.  0.
296  2.95  0.  0.
297  2.96  0.  0.
298  2.97  0.  0.
299  2.98  0.  0.
300  2.99  0.  0.
301  3.00  0.  0.
302  3.01  0.  0.
303  3.02  0.  0.
304  3.03  0.  0.
305  3.04  0.  0.
306  3.05  0.  0.
307  3.06  0.  0.
308  3.07  0.  0.
309  3.08  0.  0.
310  3.09  0.  0.
311  3.10  0.  0.
312  3.11  0.  0.
313  3.12  0.  0.
314  3.13  0.  0.
315  3.14  0.  0.
316  3.15  0.  0.
317  3.16  0.  0.
318  3.17  0.  0.
319  3.18  0.  0.
320  3.19  0.  0.
321  3.20  0.  0.
322  3.21  0.  0.
323  3.22  0.  0.
324  3.23  0.  0.
325  3.24  0.  0.
326  3.25  0.  0.
327  3.26  0.  0.
328  3.27  0.  0.
329  3.28  0.  0.
330  3.29  0.  0.
331  3.30  0.  0.
332  3.31  0.  0.
333  3.32  0.  0.
334  3.33  0.  0.
335  3.34  0.  0.
336  3.35  0.  0.
337  3.36  0.  0.
338  3.37  0.  0.
339  3.38  0.  0.
340  3.39  0.  0.
341  3.40  0.  0.
342  3.41  0.  0.
343  3.42  0.  0.
344  3.43  0.  0.
345  3.44  0.  0.
346  3.45  0.  0.
347  3.46  0.  0.
348  3.47  0.  0.
349  3.48  0.  0.
350  3.49  0.  0.
351  3.50  0.  0.
352  3.51  0.  0.
353  3.52  0.  0.
354  3.53  0.  0.
355  3.54  0.  0.
356  3.55  0.  0.
357  3.56  0.  0.
358  3.57  0.  0.
359  3.58  0.  0.
360  3.59  0.  0.
361  3.60  0.  0.
362  3.61  0.  0.
363  3.62  0.  0.
364  3.63  0.  0.
365  3.64  0.  0.
366  3.65  0.  0.
367  3.66  0.  0.
368  3.67  0.  0.
369  3.68  0.  0.
370  3.69  0.  0.
371  3.70  0.  0.
372  3.71  0.  0.
373  3.72  0.  0.
374  3.73  0.  0.
375  3.74  0.  0.
376  3.75  0.  0.
377  3.76  0.  0.
378  3.77  0.  0.
379  3.78  0.  0.
380  3.79  0.  0.
381  3.80  0.  0.
382  3.81  0.  0.
383  3.82  0.  0.
384  3.83  0.  0.
385  3.84  0.  0.
386  3.85  0.  0.
387  3.86  0.  0.
388  3.87  0.  0.
389  3.88  0.  0.
390  3.89  0.  0.
391  3.90  0.  0.
392  3.91  0.  0.
393  3.92  0.  0.
394  3.93  0.  0.
395  3.94  0.  0.
396  3.95  0.  0.
397  3.96  0.  0.
398  3.97  0.  0.
399  3.98  0.  0.
400  3.99  0.  0.
401  4.00  0.  0.
402  4.01  0.  0.
403  4.02  0.  0.
404  4.03  0.  0.
405  4.04  0.  0.
406  4.05  0.  0.
407  4.06  0.  0.
408  4.07  0.  0.
409  4.08  0.  0.
410  4.09  0.  0.
411  4.10  0.  0.
412  4.11  0.  0.
413  4.12  0.  0.
414  4.13  0.  0.
415  4.14  0.  0.
416  4.15  0.  0.
417  4.16  0.  0.
418  4.17  0.  0.
419  4.18  0.  0.
420  4.19  0.  0.
421  4.20  0.  0.
422  4.21  0.  0.
423  4.22  0.  0.
424  4.23  0.  0.
425  4.24  0.  0.
426  4.25  0.  0.
427  4.26  0.  0.
428  4.27  0.  0.
429  4.28  0.  0.
430  4.29  0.  0.
431  4.30  0.  0.
432  4.31  0.  0.
433  4.32  0.  0.
434  4.33  0.  0.
435  4.34  0.  0.
436  4.35  0.  0.
437  4.36  0.  0.
438  4.37  0.  0.
439  4.38  0.  0.
440  4.39  0.  0.
441  4.40  0.  0.
442  4.41  0.  0.
443  4.42  0.  0.
444  4.43  0.  0.
445  4.44  0.  0.
446  4.45  0.  0.
447  4.46  0.  0.
448  4.47  0.  0.
449  4.48  0.  0.
450  4.49  0.  0.
451  4.50  0.  0.
452  4.51  0.  0.
453  4.52  0.  0.
454  4.53  0.  0.
455  4.54  0.  0.
456  4.55  0.  0.
457  4.56  0.  0.
458  4.57  0.  0.
459  4.58  0.  0.
460  4.59  0.  0.
461  4.60  0.  0.
462  4.61  0.  0.
463  4.62  0.  0.
464  4.63  0.  0.
465  4.64  0.  0.
466  4.65  0.  0.
467  4.66  0.  0.
468  4.67  0.  0.
469  4.68  0.  0.
470  4.69  0.  0.
471  4.70  0.  0.
472  4.71  0.  0.
473  4.72  0.  0.
474  4.73  0.  0.
475  4.74  0.  0.
476  4.75  0.  0.
477  4.76  0.  0.
478  4.77  0.  0.
479  4.78  0.  0.
480  4.79  0.  0.
481  4.80  0.  0.
482  4.81  0.  0.
483  4.82  0.  0.
484  4.83  0.  0.
485  4.84  0.  0.
486  4.85  0.  0.
487  4.86  0.  0.
488  4.87  0.  0.
489  4.88  0.  0.
490  4.89  0.  0.
491  4.90  0.  0.
492  4.91  0.  0.
493  4.92  0.  0.
494  4.93  0.  0.
495  4.94  0.  0.
496  4.95  0.  0.
497  4.96  0.  0.
498  4.97  0.  0.
499  4.98  0.  0.
500  4.99  0.  0.
501  5.00  0.  0.
502  5.01  0.  0.
503  5.02  0.  0.
504  5.03  0.  0.
505  5.04  0.  0.
506  5.05  0.  0.
507  5.06  0.  0.
508  5.07  0.  0.
509  5.08  0.  0.
510  5.09  0.  0.
511  5.10  0.  0.
512  5.11  0.  0.
513  5.12  0.  0.
514  5.13  0.  0.
515  5.14  0.  0.
516  5.15  0.  0.
517  5.16  0.  0.
518  5.17  0.  0.
519  5.18  0.  0.
520  5.19  0.  0.
521  5.20  0.  0.
522  5.21  0.  0.
523  5.22  0.  0.
524  5.23  0.  0.
525  5.24  0.  0.
526  5.25  0.  0.
527  5.26  0.  0.
528  5.27  0.  0.
529  5.28  0.  0.
530  5.29  0.  0.
531  5.30  0.  0.
532  5.31  0.  0.
533  5.32  0.  0.
534  5.33  0.  0.
535  5.34  0.  0.
536  5.35  0.  0.
537  5.36  0.  0.
538  5.37  0.  0.
539  5.38  0.  0.
540  5.39  0.  0.
541  5.40  0.  0.
542  5.41  0.  0.
543  5.42  0.  0.
544  5.43  0.  0.
545  5.44  0.  0.
546  5.45  0.  0.
547  5.46  0.  0.
548  5.47  0.  0.
549  5.48  0.  0.
550  5.49  0.  0.
551  5.50  0.  0.
552  5.51  0.  0.
553  5.52  0.  0.
554  5.53  0.  0.
555  5.54  0.  0.
556  5.55  0.  0.
557  5.56  0.  0.
558  5.57  0.  0.
559  5.58  0.  0.
560  5.59  0.  0.
561  5.60  0.  0.
562  5.61  0.  0.
563  5.62  0.  0.
564  5.63  0.  0.
565  5.64  0.  0.
566  5.65  0.  0.
567  5.66  0.  0.
568  5.67  0.  0.
569  5.68  0.  0.
570  5.69  0.  0.
571  5.70  0.  0.
572  5.71  0.  0.
573  5.72  0.  0.
574  5.73  0.  0.
575  5.74  0.  0.
576  5.75  0.  0.
577  5.76  0.  0.
578  5.77  0.  0.
579  5.78  0.  0.
580  5.79  0.  0.
581  5.80  0.  0.
582  5.81  0.  0.
583  5.82  0.  0.
584  5.83  0.  0.
585  5.84  0.  0.
586  5.85  0.  0.
587  5.86  0.  0.
588  5.87  0.  0.
589  5.88  0.  0.
590  5.89  0.  0.
591  5.90  0.  0.
592  5.91  0.  0.
593  5.92  0.  0.
594  5.93  0.  0.
595  5.94  0.  0.
596  5.95  0.  0.
597  5.96  0.  0.
598  5.97  0.  0.
599  5.98  0.  0.
600  5.99  0.  0.
1                         6.1321558781893E+00  6.8042197196727E-01
1  0.0000000000000E+00  7.5046497280407E-09 -3.0311964022145E-08
2  1.0000000000000E-02  9.7462890070779E-04 -1.4272380288313E-03
3  2.0000000000000E-02  3.8876382503200E-03 -5.6687119480318E-03
4  3.0000000000000E-02  8.7066140801634E-03 -1.2604582014014E-02
5  4.0000000000000E-02  1.5378255642647E-02 -2.2038033303431E-02
6  5.0000000000000E-02  2.3829443795514E-02 -3.3699590461508E-02
7  6.0000000000000E-02  3.3968706218016E-02 -4.7253035146152E-02
8  7.0000000000000E-02  4.5688049655413E-02 -6.2302805852255E-02
9  8.0000000000000E-02  5.8865121883557E-02 -7.8402729488660E-02
10  9.0000000000000E-02  7.3365659312229E-02 -9.5065906710693E-02
11  1.0000000000000E-01  8.9046170238425E-02 -1.1177554912224E-01
12  1.1000000000000E-01  1.0575679883600E-01 -1.2799654652556E-01
13  1.2000000000000E-01  1.2334431112517E-01 -1.4318752681236E-01
14  1.3000000000000E-01  1.4165514148214E-01 -1.5681316017099E-01
15  1.4000000000000E-01  1.6053843678199E-01 -1.6835645325798E-01
16  1.5000000000000E-01  1.7984903504950E-01 -1.7733077798181E-01
17  1.6000000000000E-01  1.9945031653198E-01 -1.8329138360782E-01
18  1.7000000000000E-01  2.1921686738987E-01 -1.8584614995738E-01
19  1.8000000000000E-01  2.3903689968607E-01 -1.8466535338428E-01
20  1.9000000000000E-01  2.5881437598035E-01 -1.7949023571694E-01
21  2.0000000000000E-01  2.7847079251709E-01 -1.7014018911728E-01
22  2.1000000000000E-01  2.9794658162591E-01 -1.5651839640271E-01
23  2.2000000000000E-01  3.1720210141280E-01 -1.3861579630825E-01
24  2.3000000000000E-01  3.3621818896125E-01 -1.1651327586625E-01
25  2.4000000000000E-01  3.5499626193560E-01 -9.0382026929714E-02
26  2.5000000000000E-01  3.7355796251411E-01 -6.0482040195255E-02
27  2.6000000000000E-01  3.9194434680497E-01 -2.7158747195213E-02
28  2.7000000000000E-01  4.1021463213368E-01  9.1621420943493E-03
29  2.8000000000000E-01  4.2844452365605E-01  4.7981521864878E-02
30  2.9000000000000E-01  4.4672415046784E-01  8.8735373999175E-02
31  3.0000000000000E-01  4.6515564957769E-01  1.3080470013055E-01
32  3.1000000000000E-01  4.8385044361913E-01  1.7352671952051E-01
33  3.2000000000000E-01  5.0292626484867E-01  2.1620712304246E-01
34  3.3000000000000E-01  5.2250398367184E-01  2.5813315045961E-01
35  3.4000000000000E-01  5.4270430453845E-01  2.9858723946528E-01
36  3.5000000000000E-01  5.6364439545193E-01  3.3686098101347E-01
37  3.6000000000000E-01  5.8543451946792E-01  3.7226910662182E-01
38  3.7000000000000E-01  6.0817473736086E-01  4.0416322979438E-01
39  3.8000000000000E-01  6.3195175008504E-01  4.3194506560448E-01
40  3.9000000000000E-01  6.5683594774542E-01  4.5507885981424E-01
41  4.0000000000000E-01  6.8287872854784E-01  4.7310277159256E-01
42  4.1000000000000E-01  7.1011014666602E-01  4.8563897173508E-01
43  4.2000000000000E-01  7.3853694221944E-01  4.9240224098854E-01
44  4.3000000000000E-01  7.6814099970056E-01  4.9320688024660E-01
45  4.4000000000000E-01  7.9887827334247E-01  4.8797177552914E-01
46  4.5000000000000E-01  8.3067820922132E-01  4.7672349521808E-01
47  4.6000000000000E-01  8.6344368450124E-01  4.5959733436176E-01
48  4.7000000000000E-01  8.9705147432690E-01  4.3683626027887E-01
49  4.8000000000000E-01  9.3135324663796E-01  4.0878775444783E-01
50  4.9000000000000E-01  9.6617707481462E-01  3.7589858697617E-01
51  5.0000000000000E-01  1.0013294477644E+00  3.3870760101182E-01
52  5.1000000000000E-01  1.0365977470283E+00  2.9783662447769E-01
53  5.2000000000000E-01  1.0717531509160E+00  2.5397966469404E-01
54  5.3000000000000E-01  1.1065539167698E+00  2.0789057703255E-01
55  5.4000000000000E-01  1.1407489843815E+00  1.6036943100001E-01
56  5.5000000000000E-01  1.1740818365156E+00  1.1224782540958E-01
57  5.6000000000000E-01  1.2062945465775E+00  6.4373427966983E-02
58  5.7000000000000E-01  1.2371319388262E+00  1.7594033161800E-02
59  5.8000000000000E-01  1.2663457832914E+00 -2.7258554612506E-02
60  5.9000000000000E-01  1.2936989457691E+00 -6.9384498601690E-02
61  6.0000000000000E-01  1.3189694130201E+00 -1.0803145266475E-01
62  6.1000000000000E-01  1.3419541145795E+00 -1.4250931947686E-01
63  6.2000000000000E-01  1.3624724654147E+00 -1.7220394492179E-01
64  6.3000000000000E-01  1.3803695580028E+00 -1.9658946678547E-01
65  6.4000000000000E-01  1.3955189381657E+00 -2.1523905874122E-01
66  6.5000000000000E-01  1.4078249061207E+00 -2.2783383884801E-01
67  6.6000000000000E-01  1.4172242925417E+00 -2.3416974488068E-01
68  6.7000000000000E-01  1.4236876688464E+00 -2.3416221619148E-01
69  6.8000000000000E-01  1.4272199612485E+00 -2.2784856278575E-01
70  6.9000000000000E-01  1.4278604491666E+00 -2.1538794613278E-01
71  7.0000000000000E-01  1.4256821401387E+00 -1.9705894209703E-01
72  7.1000000000000E-01  1.4207905252566E+00 -1.7325470340732E-01
73  7.2000000000000E-01  1.4133217310679E+00 -1.4447578636593E-01
74  7.3000000000000E-01  1.4034400956676E+00 -1.1132075313191E-01
75  7.4000000000000E-01  1.3913352080944E+00 -7.4474705963030E-02
76  7.5000000000000E-01  1.3772184609234E+00 -3.4695952380135E-02
77  7.6000000000000E-01  1.3613191758990E+00  7.1989605364743E-03
78  7.7000000000000E-01  1.3438803713764E+00  5.0351569402760E-02
79  7.8000000000000E-01  1.3251542480472E+00  9.3878871788390E-02
80  7.9000000000000E-01  1.3053974757647E+00  1.3689142920979E-01
81  8.0000000000000E-01  1.2848663691022E+00  1.7851184894439E-01
82  8.1000000000000E-01  1.2638120424790E+00  2.1789328560458E-01
83  8.2000000000000E-01  1.2424756371836E+00  2.5423759807779E-01
84  8.3000000000000E-01  1.2210837123746E+00  2.8681279910540E-01
85  8.4000000000000E-01  1.1998438901155E+00  3.1496944348884E-01
86  8.5000000000000E-01  1.1789408407477E+00  3.3815561658681E-01
87  8.6000000000000E-01  1.1585326894471E+00  3.5593020718340E-01
88  8.7000000000000E-01  1.1387479177654E+00  3.6797417760283E-01
89  8.8000000000000E-01  1.1196828254128E+00  3.7409957864182E-01
90  8.9000000000000E-01  1.1013996076771E+00  3.7425609688036E-01
91  9.0000000000000E-01  1.0839250928356E+00  3.6853496650665E-01
92  9.1000000000000E-01  1.0672501719339E+00  3.5717012614361E-01
93  9.2000000000000E-01  1.0513299405732E+00  3.4053655241062E-01
94  9.3000000000000E-01  1.0360845591124E+00  3.1914575513986E-01
95  9.4000000000000E-01  1.0214008241998E+00  2.9363847330542E-01
96  9.5000000000000E-01  1.0071344310495E+00  2.6477466478499E-01
97  9.6000000000000E-01  9.9311289262845E-01  2.3342093604050E-01
98  9.7000000000000E-01  9.7913906916778E-01  2.0053560866369E-01
99  9.8000000000000E-01  9.6499524940870E-01  1.6715166749660E-01
100  9.9000000000000E-01  9.5044771395463E-01  1.3435787879237E-01
101  1.0000000000000E+00  9.3525170125663E-01  1.0327840575529E-01
102  1.0100000000000E+00  9.1915668828051E-01  7.5051282057230E-02
103  1.0200000000000E+00  9.0191189097358E-01  5.0806130858394E-02
104  1.0300000000000E+00  8.8327188439368E-01  3.1641536945003E-02
105  1.0400000000000E+00  8.6300223888698E-01  1.8602492415504E-02
106  1.0500000000000E+00  8.4088506708721E-01  1.2658341566910E-02
107  1.0600000000000E+00  8.1672437678043E-01  1.4681648161180E-02
108  1.0700000000000E+00  7.9035112685583E-01  2.5428398003619E-02
109  1.0800000000000E+00  7.6162788759780E-01  4.5519931934824E-02
110  1.0900000000000E+00  7.3045301241100E-01  7.5426979148549E-02
111  1.1000000000000E+00  6.9676423561912E-01  1.1545612855374E-01
112  1.1100000000000E+00  6.6054162007444E-01  1.6573903737657E-01
113  1.1200000000000E+00  6.2180978888299E-01  2.2622463163296E-01
114  1.1300000000000E+00  5.8063938728405E-01  2.9667450374838E-01
115  1.1400000000000E+00  5.3714773360042E-01  3.7666165851274E-01
116  1.1500000000000E+00  4.9149863175952E-01  4.6557270154034E-01
117  1.1600000000000E+00  4.4390133221099E-01  5.6261350426141E-01
118  1.1700000000000E+00  3.9460864261135E-01  6.6681831835854E-01
119  1.1800000000000E+00  3.4391420447120E-01  7.7706225017975E-01
120  1.1900000000000E+00  2.9214896655197E-01  8.9207694412796E-01
121  1.2000000000000E+00  2.3967690016234E-01  1.0104692632755E+00
122  1.2100000000000E+00  1.8689001526740E-01  1.1307426970131E+00
123  1.2200000000000E+00  1.3420274933644E-01  1.2513211700050E+00
124  1.2300000000000E+00  8.2045812993159E-02  1.3705748745703E+00
125  1.2400000000000E+00  3.0859587483838E-02  1.4868477011429E+00
126  1.2500000000000E+00 -1.8912821208634E-02  1.5984857984294E+00
127  1.2600000000000E+00 -6.6832758363469E-02  1.7038667573751E+00
128  1.2700000000000E+00 -1.1247330640682E-01  1.8014288811785E+00
129  1.2800000000000E+00 -1.5542655490540E-01  1.8896999773422E+00
130  1.2900000000000E+00 -1.9531072489573E-01  1.9673250876545E+00
131  1.3000000000000E+00 -2.3177701524440E-01  2.0330925576792E+00
132  1.3100000000000E+00 -2.6451603765984E-01  2.0859578387110E+00
133  1.3200000000000E+00 -2.9326370729887E-01  2.1250644120679E+00
134  1.3300000000000E+00 -3.1780645749656E-01  2.1497612274458E+00