Nd    ONCVPSP-4.0.1  r_core=   2.00095   1.60366   1.90745   1.35634
60.0000     14.0000      241015    zatom,zion,pspd
8      11   3     4   600     0    pspcod,pspxc,lmax,lloc,mmax,r2well
5.99000000  4.00000000  0.00000000    rchrg fchrg qchrg
3     2     2     2     0    nproj
1     1           extension_switch
0                         1.1356975840466E+01  1.8903296495006E+00  2.8029556182249E-01
1  0.0000000000000E+00 -2.8519425709916E-10  1.0201337136140E-09 -2.6840148992235E-09
2  1.0000000000000E-02  3.1262679240833E-02 -9.3515328737465E-03  2.8384190111666E-02
3  2.0000000000000E-02  6.2507107599664E-02 -1.8603027615475E-02  5.6403356997208E-02
4  3.0000000000000E-02  9.3715298233035E-02 -2.7655954375001E-02  8.3697263613477E-02
5  4.0000000000000E-02  1.2486978720480E-01 -3.6414778871560E-02  1.0991518620225E-01
6  5.0000000000000E-02  1.5595388208894E-01 -4.4788407955627E-02  1.3472052392054E-01
7  6.0000000000000E-02  1.8695189535633E-01 -5.2691573235401E-02  1.5779523398013E-01
8  7.0000000000000E-02  2.1784935781260E-01 -6.0046133334306E-02  1.7884403731802E-01
9  8.0000000000000E-02  2.4863320763915E-01 -6.6782276366021E-02  1.9759834250291E-01
10  9.0000000000000E-02  2.7929195093972E-01 -7.2839605466603E-02  2.1381983888352E-01
11  1.0000000000000E-01  3.0981579010457E-01 -7.8168091694407E-02  2.2730371386248E-01
12  1.1000000000000E-01  3.4019671677053E-01 -8.2728880281435E-02  2.3788145359595E-01
13  1.2000000000000E-01  3.7042856666947E-01 -8.6494938072859E-02  2.4542319131880E-01
14  1.3000000000000E-01  4.0050703421641E-01 -8.9451532006524E-02  2.4983957283223E-01
15  1.4000000000000E-01  4.3042964528229E-01 -9.1596530634082E-02  2.5108311439769E-01
16  1.5000000000000E-01  4.6019568721922E-01 -9.2940522946978E-02  2.4914903429840E-01
17  1.6000000000000E-01  4.8980609584942E-01 -9.3506751116351E-02  2.4407554558944E-01
18  1.7000000000000E-01  5.1926329978542E-01 -9.3330856159029E-02  2.3594360399034E-01
19  1.8000000000000E-01  5.4857102310824E-01 -9.2460437970132E-02  2.2487611139920E-01
20  1.9000000000000E-01  5.7773404808656E-01 -9.0954433593504E-02  2.1103658206624E-01
21  2.0000000000000E-01  6.0675794026207E-01 -8.8882319998106E-02  1.9462728496506E-01
22  2.1000000000000E-01  6.3564873884647E-01 -8.6323149965776E-02  1.7588688227588E-01
23  2.2000000000000E-01  6.6441261596751E-01 -8.3364431946542E-02  1.5508759007620E-01
24  2.3000000000000E-01  6.9305550885274E-01 -8.0100866866911E-02  1.3253189323188E-01
25  2.4000000000000E-01  7.2158272954855E-01 -7.6632956869249E-02  1.0854885205428E-01
26  2.5000000000000E-01  7.4999855722441E-01 -7.3065502775281E-02  8.3490043430724E-02
27  2.6000000000000E-01  7.7830581850792E-01 -6.9506008697059E-02  5.7725183826218E-02
28  2.7000000000000E-01  8.0650546162492E-01 -6.6063013630236E-02  3.1637485703870E-02
29  2.8000000000000E-01  8.3459613037632E-01 -6.2844371043223E-02  5.6188024812509E-03
30  2.9000000000000E-01  8.6257374416673E-01 -5.9955498406759E-02 -1.9935379911788E-02
31  3.0000000000000E-01  8.9043109040289E-01 -5.7497619271965E-02 -4.4631044535953E-02
32  3.1000000000000E-01  9.1815743560196E-01 -5.5566020896736E-02 -6.8080776087082E-02
33  3.2000000000000E-01  9.4573816148865E-01 -5.4248350529196E-02 -8.9908861906790E-02
34  3.3000000000000E-01  9.7315443221418E-01 -5.3622973277588E-02 -1.0975629847059E-01
35  3.4000000000000E-01  1.0003828986013E+00 -5.3757414031009E-02 -1.2728564109340E-01
36  3.5000000000000E-01  1.0273954450081E+00 -5.4706905144672E-02 -1.4218563596994E-01
37  3.6000000000000E-01  1.0541589840122E+00 -5.6513060573259E-02 -1.5417557578221E-01
38  3.7000000000000E-01  1.0806353036499E+00 -5.9202695837282E-02 -1.6300932293822E-01
39  3.8000000000000E-01  1.1067809714048E+00 -6.2786811651804E-02 -1.6847894803028E-01
40  3.9000000000000E-01  1.1325472985372E+00 -6.7259757251659E-02 -1.7041793528122E-01
41  4.0000000000000E-01  1.1578803676788E+00 -7.2598587428824E-02 -1.6870391154543E-01
42  4.1000000000000E-01  1.1827211259019E+00 -7.8762625087295E-02 -1.6326086077649E-01
43  4.2000000000000E-01  1.2070055447098E+00 -8.5693238727798E-02 -1.5406079174493E-01
44  4.3000000000000E-01  1.2306648475992E+00 -9.3313841744780E-02 -1.4112483307751E-01
45  4.4000000000000E-01  1.2536258050251E+00 -1.0153011776909E-01 -1.2452373635413E-01
46  4.5000000000000E-01  1.2758110957578E+00 -1.1023047355573E-01 -1.0437777495528E-01
47  4.6000000000000E-01  1.2971397327803E+00 -1.1928671813266E-01 -8.0856033516385E-02
48  4.7000000000000E-01  1.3175275510380E+00 -1.2855496412987E-01 -5.4175090127088E-02
49  4.8000000000000E-01  1.3368877535280E+00 -1.3787674442265E-01 -2.4597100750323E-02
50  4.9000000000000E-01  1.3551315114245E+00 -1.4708033450096E-01  7.5726973997780E-03
51  5.0000000000000E-01  1.3721686131772E+00 -1.5598226833463E-01  4.1989039634397E-02
52  5.1000000000000E-01  1.3879081568124E+00 -1.6438903299271E-01  7.8270213932324E-02
53  5.2000000000000E-01  1.4022592790173E+00 -1.7209892491903E-01  1.1600213006664E-01
54  5.3000000000000E-01  1.4151319140030E+00 -1.7890404859254E-01  1.5474283412498E-01
55  5.4000000000000E-01  1.4264375746371E+00 -1.8459243635673E-01  1.9402741912638E-01
56  5.5000000000000E-01  1.4360901479148E+00 -1.8895026649496E-01  2.3337327726188E-01
57  5.6000000000000E-01  1.4440066965057E+00 -1.9176415519477E-01  2.7228563473682E-01
58  5.7000000000000E-01  1.4501082578802E+00 -1.9282349690224E-01  3.1026330632756E-01
59  5.8000000000000E-01  1.4543206323894E+00 -1.9192282673679E-01  3.4680460363771E-01
60  5.9000000000000E-01  1.4565751516433E+00 -1.8886417812220E-01  3.8141332867425E-01
61  6.0000000000000E-01  1.4568094186161E+00 -1.8345940861989E-01  4.1360478284213E-01
62  6.1000000000000E-01  1.4549680110953E+00 -1.7553246710555E-01  4.4291172074167E-01
63  6.2000000000000E-01  1.4510031403902E+00 -1.6492157593731E-01  4.6889017832209E-01
64  6.3000000000000E-01  1.4448752576151E+00 -1.5148130259642E-01  4.9112510594817E-01
65  6.4000000000000E-01  1.4365536003707E+00 -1.3508449644786E-01  5.0923573880618E-01
66  6.5000000000000E-01  1.4260166732457E+00 -1.1562406774591E-01  5.2288063976649E-01
67  6.6000000000000E-01  1.4132526562519E+00 -9.3014587784653E-02  5.3176235331525E-01
68  6.7000000000000E-01  1.3982597360820E+00 -6.7193691146060E-02  5.3563161342884E-01
69  6.8000000000000E-01  1.3810463559222E+00 -3.8123263292676E-02  5.3429105321659E-01
70  6.9000000000000E-01  1.3616313804651E+00 -5.7903992768142E-03  5.2759836978703E-01
71  7.0000000000000E-01  1.3400441737254E+00  2.9791877962659E-02  5.1546890396973E-01
72  7.1000000000000E-01  1.3163245882636E+00  6.8584148387330E-02  4.9787760122508E-01
73  7.2000000000000E-01  1.2905228654444E+00  1.1052038044124E-01  4.7486032716881E-01
74  7.3000000000000E-01  1.2626994473976E+00  1.5550797409909E-01  4.4651451858067E-01
75  7.4000000000000E-01  1.2329247023801E+00  2.0342806099706E-01  4.1299915840707E-01
76  7.5000000000000E-01  1.2012785662587E+00  2.5413605821508E-01  3.7453407105629E-01
77  7.6000000000000E-01  1.1678501038170E+00  3.0746246929521E-01  3.3139854209403E-01
78  7.7000000000000E-01  1.1327369945319E+00  3.6321392320228E-01  2.8392927417164E-01
79  7.8000000000000E-01  1.0960449483468E+00  4.2117443919503E-01  2.3251769858262E-01
80  7.9000000000000E-01  1.0578870577757E+00  4.8110690302830E-01  1.7760666911932E-01
81  8.0000000000000E-01  1.0183830933952E+00  5.4275473758164E-01  1.1968657181393E-01
82  8.1000000000000E-01  9.7765875040779E-01  6.0584374894055E-01  5.9290890611705E-02
83  8.2000000000000E-01  9.3584485447933E-01  6.7008412718053E-01 -3.0087250571726E-03
84  8.3000000000000E-01  8.9307653545470E-01  7.3517257964042E-01 -6.6607839519792E-02
85  8.4000000000000E-01  8.4949237783728E-01  8.0079457334912E-01 -1.3087500098403E-01
86  8.5000000000000E-01  8.0523355706953E-01  8.6662666249581E-01 -1.9515784267269E-01
87  8.6000000000000E-01  7.6044297067147E-01  9.3233887642800E-01 -2.5878945192190E-01
88  8.7000000000000E-01  7.1526437318120E-01  9.9759714362305E-01 -3.2109494180230E-01
89  8.8000000000000E-01  6.6984152359587E-01  1.0620657274038E+00 -3.8139815821149E-01
90  8.9000000000000E-01  6.2431735363695E-01  1.1254096498515E+00 -4.3902845456795E-01
91  9.0000000000000E-01  5.7883316466397E-01  1.1872970813947E+00 -4.9332746619277E-01
92  9.1000000000000E-01  5.3352786044426E-01  1.2474016748935E+00 -5.4365581716307E-01
93  9.2000000000000E-01  4.8853722226362E-01  1.3054048246693E+00 -5.8939969380623E-01
94  9.3000000000000E-01  4.4399323204119E-01  1.3609978328197E+00 -6.2997722105610E-01
95  9.4000000000000E-01  4.0002344821177E-01  1.4138839672567E+00 -6.6484458049242E-01
96  9.5000000000000E-01  3.5675043816911E-01  1.4637803981720E+00 -6.9350181200501E-01
97  9.6000000000000E-01  3.1429127004643E-01  1.5104200020216E+00 -7.1549824454481E-01
98  9.7000000000000E-01  2.7275706556177E-01  1.5535530245633E+00 -7.3043750527399E-01
99  9.8000000000000E-01  2.3225261459621E-01  1.5929485969339E+00 -7.3798206050222E-01
100  9.9000000000000E-01  1.9287605112522E-01  1.6283961011412E+00 -7.3785724599535E-01
101  1.0000000000000E+00  1.5471858910631E-01  1.6597063836243E+00 -7.2985474848269E-01
102  1.0100000000000E+00  1.1786431596358E-01  1.6867128176278E+00 -7.1383550437145E-01
103  1.0200000000000E+00  8.2390040424770E-02  1.7092722169930E+00 -6.8973198571095E-01
104  1.0300000000000E+00  4.8365190677862E-02  1.7272656055258E+00 -6.5754984728047E-01
105  1.0400000000000E+00  1.5851758145399E-02  1.7405988473119E+00 -6.1736891223224E-01
106  1.0500000000000E+00 -1.5095718354764E-02  1.7492031441578E+00 -5.6934347696990E-01
107  1.0600000000000E+00 -4.4430133666929E-02  1.7530354067076E+00 -5.1370191886800E-01
108  1.0700000000000E+00 -7.2111768378503E-02  1.7520785056851E+00 -4.5074559306093E-01
109  1.0800000000000E+00 -9.8108217742600E-02  1.7463414091164E+00 -3.8084700686931E-01
110  1.0900000000000E+00 -1.2239430307853E-01  1.7358592102889E+00 -3.0444726259486E-01
111  1.1000000000000E+00 -1.4495197089918E-01  1.7206930496026E+00 -2.2205276150304E-01
112  1.1100000000000E+00 -1.6577018442347E-01  1.7009299313958E+00 -1.3423116398652E-01
113  1.1200000000000E+00 -1.8484481133325E-01  1.6766824342891E+00 -4.1606603395228E-02
114  1.1300000000000E+00 -2.0217851064505E-01  1.6480883106902E+00  5.5145845940896E-02
115  1.1400000000000E+00 -2.1778062038506E-01  1.6153099678567E+00  1.5530644200450E-01
116  1.1500000000000E+00 -2.3166704642259E-01  1.5785338194850E+00  2.5811778000384E-01
117  1.1600000000000E+00 -2.4386015133074E-01  1.5379694932377E+00  3.6279251221288E-01
118  1.1700000000000E+00 -2.5438864057147E-01  1.4938488761681E+00  4.6852175686216E-01
119  1.1800000000000E+00 -2.6328744165197E-01  1.4464249767433E+00  5.7448415805246E-01
120  1.1900000000000E+00 -2.7059757025675E-01  1.3959705794024E+00  6.7985554306788E-01
121  1.2000000000000E+00 -2.7636597575799E-01  1.3427766654885E+00  7.8381910342802E-01
122  1.2100000000000E+00 -2.8064535703722E-01  1.2871505732973E+00  8.8557600082770E-01
123  1.2200000000000E+00 -2.8349393828966E-01  1.2294138701733E+00  9.8435626780926E-01
124  1.2300000000000E+00 -2.8497519352384E-01  1.1698999114615E+00  1.0794298342077E+00
125  1.2400000000000E+00 -2.8515750792917E-01  1.1089510650310E+00  1.1701174635615E+00
126  1.2500000000000E+00 -2.8411376427931E-01  1.0469155865676E+00  1.2558013266563E+00
127  1.2600000000000E+00 -2.8192084322156E-01  9.8414414034703E-01  1.3359348712484E+00
128  1.2700000000000E+00 -2.7865902780235E-01  9.2098597322687E-01  1.4100515665478E+00
129  1.2800000000000E+00 -2.7441130510992E-01  8.5778476698937E-01  1.4777720052344E+00
130  1.2900000000000E+00 -2.6926256164437E-01  7.9487421638902E-01  1.5388087341009E+00
131  1.3000000000000E+00 -2.6329867413624E-01  7.3257340800388E-01  1.5929680547671E+00
132  1.3100000000000E+00 -2.5660550436450E-01  6.7118210952729E-01  1.6401478842568E+00
133  1.3200000000000E+00 -2.4926781522241E-01  6.1097612082356E-01  1.6803305915800E+00
134  1.3300000000000E+00 -2.4136813616130E-01  5.5220288808199E-01  1.7135695271715E+00
135  1.3400000000000E+00 -2.3298561957508E-01  4.9507764201439E-01  1.7399677325240E+00
136  1.3500000000000E+00 -2.2419494826755E-01  4.3978040572076E-01  1.7596471865879E+00
137  1.3600000000000E+00 -2.1506535422289E-01  3.8645417655885E-01  1.7727055852551E+00
138  1.3700000000000E+00 -2.0566036914952E-01  3.3520795892309E-01  1.7791896445857E+00
139  1.3800000000000E+00 -1.9603926198800E-01  2.8612900380144E-01  1.7791553715864E+00
140  1.3900000000000E+00 -1.8625789012008E-01  2.3928897407773E-01  1.7727084266318E+00
141  1.4000000000000E+00 -1.7636873615640E-01  1.9474435584118E-01  1.7600015223548E+00
142  1.4100000000000E+00 -1.6642098062947E-01  1.5253707399138E-01  1.7412320905337E+00
143  1.4200000000000E+00 -1.5646058631437E-01  1.1269514968459E-01  1.7166392604471E+00
144  1.4300000000000E+00 -1.4653039828581E-01  7.5233439751663E-02  1.6865005646850E+00
145  1.4400000000000E+00 -1.3667025575269E-01  4.0154440490438E-02  1.6511283961970E+00
146  1.4500000000000E+00 -1.2691711211427E-01  7.4491410999963E-03  1.6108662556727E+00
147  1.4600000000000E+00 -1.1730515986188E-01 -2.2902087333060E-02  1.5660848317452E+00
148  1.4700000000000E+00 -1.0786595713946E-01 -5.0928580880315E-02  1.5171779567195E+00
149  1.4800000000000E+00 -9.8628553022488E-02 -7.6668462758045E-02  1.4645584809675E+00
150  1.4900000000000E+00 -8.9619608857889E-02 -1.0016772636549E-01  1.4086541081527E+00
151  1.5000000000000E+00 -8.0863513331996E-02 -1.2147933255396E-01  1.3499032328556E+00
152  1.5100000000000E+00 -7.2382489283549E-02 -1.4066233128366E-01  1.2887508208813E+00
153  1.5200000000000E+00 -6.4196690652100E-02 -1.5778101669843E-01  1.2256443703990E+00
154  1.5300000000000E+00 -5.6324288336556E-02 -1.7290412348442E-01  1.1610299905244E+00
155  1.5400000000000E+00 -4.8781544133646E-02 -1.8610407112850E-01  1.0953486309615E+00
156  1.5500000000000E+00 -4.1582872315024E-02 -1.9745626145742E-01  1.0290324941065E+00
157  1.5600000000000E+00 -3.4740888793303E-02 -2.0703843352882E-01  9.6250165742138E-01
158  1.5700000000000E+00 -2.8266448191590E-02 -2.1493007873094E-01  8.9616093147446E-01
159  1.5800000000000E+00 -2.2168669491639E-02 -2.2121191765782E-01  8.3039697491931E-01
160  1.5900000000000E+00 -1.6454951260007E-02 -2.2596543915552E-01  7.6557568469574E-01
161  1.6000000000000E+00 -1.1130977747369E-02 -2.2927250080670E-01  7.0203987623902E-01
162  1.6100000000000E+00 -6.2007174268613E-03 -2.3121498901514E-01  6.4010726454477E-01
163  1.6200000000000E+00 -1.6664157547512E-03 -2.3187453591847E-01  5.8006875386610E-01
164  1.6300000000000E+00  2.4714158748379E-03 -2.3133228945359E-01  5.2218704011304E-01
165  1.6400000000000E+00  6.2140128741446E-03 -2.2966873215388E-01  4.6669552683675E-01
166  1.6500000000000E+00  9.5643696975053E-03 -2.2696354357489E-01  4.1379755221793E-01
167  1.6600000000000E+00  1.2527249323938E-02 -2.2329550077215E-01  3.6366592182442E-01
168  1.6700000000000E+00  1.5109187740409E-02 -2.1874241085005E-01  3.1644273892930E-01
169  1.6800000000000E+00  1.7318491217668E-02 -2.1338106929657E-01  2.7223952129098E-01
170  1.6900000000000E+00  1.9165224279879E-02 -2.0728723777387E-01  2.3113759149863E-01
171  1.7000000000000E+00  2.0661186398966E-02 -2.0053563500286E-01  1.9318872561314E-01
172  1.7100000000000E+00  2.1819875610954E-02 -1.9319993445993E-01  1.5841604273218E-01
173  1.7200000000000E+00  2.2656437491792E-02 -1.8535276297354E-01  1.2681511728878E-01
174  1.7300000000000E+00  2.3187598151956E-02 -1.7706569454497E-01  9.8355293884716E-02
175  1.7400000000000E+00  2.3431580210656E-02 -1.6840923429178E-01  7.2981184116392E-02
176  1.7500000000000E+00  2.3408000988737E-02 -1.5945278785970E-01  5.0614323567495E-02
177  1.7600000000000E+00  2.3137752499509E-02 -1.5026461236827E-01  3.1154967178296E-02
178  1.7700000000000E+00  2.2642863148207E-02 -1.4091174563882E-01  1.4484000944770E-02
179  1.7800000000000E+00  2.1946341371807E-02 -1.3145991110674E-01  4.6494748752792E-04
180  1.7900000000000E+00  2.1072001819215E-02 -1.2197339671067E-01 -1.1053956113228E-02
181  1.8000000000000E+00  2.0044275019634E-02 -1.1251490688348E-01 -2.0237629230815E-02
182  1.8100000000000E+00  1.8888001684835E-02 -1.0314538700934E-01 -2.7261990257908E-02
183  1.8200000000000E+00  1.7628213474827E-02 -9.3923822082869E-02 -3.2311785753469E-02
184  1.8300000000000E+00  1.6289901905773E-02 -8.4907010175119E-02 -3.5578428708604E-02
185  1.8400000000000E+00  1.4897776988319E-02 -7.6149310507471E-02 -3.7257874278598E-02
186  1.8500000000000E+00  1.3476019542093E-02 -6.7702375654285E-02 -3.7548519429854E-02
187  1.8600000000000E+00  1.2048027809831E-02 -5.9614862962309E-02 -3.6649179416396E-02
188  1.8700000000000E+00  1.0636181360510E-02 -5.1932190598621E-02 -3.4757016832788E-02
189  1.8800000000000E+00  9.2614192078326E-03 -4.4695734015750E-02 -3.2066679667561E-02
190  1.8900000000000E+00  7.9435344405476E-03 -3.7944121672201E-02 -2.8765253052319E-02
191  1.9000000000000E+00  6.6998055672630E-03 -3.1709608558231E-02 -2.5037370749138E-02
192  1.9100000000000E+00  5.5294596780614E-03 -2.5972557160853E-02 -2.1155571158996E-02
193  1.9200000000000E+00  4.4275507018655E-03 -2.0702752190325E-02 -1.7394121823146E-02
194  1.9300000000000E+00  3.4185034206062E-03 -1.5958821795927E-02 -1.3825035467942E-02
195  1.9400000000000E+00  2.5211773335821E-03 -1.1785426498897E-02 -1.0525810990253E-02
196  1.9500000000000E+00  1.7504998169059E-03 -8.2183334380848E-03 -7.5675758323633E-03
197  1.9600000000000E+00  1.1168987593081E-03 -5.2829620088877E-03 -5.0167573277950E-03
198  1.9700000000000E+00  6.2640867077515E-04 -2.9952612192356E-03 -2.9350052448317E-03
199  1.9800000000000E+00  2.7901922528523E-04 -1.3535425581196E-03 -1.3698599791611E-03
200  1.9900000000000E+00  7.4516814498625E-05 -3.6868348881745E-04 -3.8779434608772E-04
201  2.0000000000000E+00  1.8783993444616E-06 -1.0127225307554E-05 -1.4306002743580E-05
202  2.0100000000000E+00 -2.2338301692442E-06  1.1241369262190E-05  1.1563253950991E-05
203  2.0200000000000E+00  1.2100512293603E-06 -6.0084301471657E-06 -6.1236143385962E-06
204  2.03 -0.  0.  0.
205  2.04  0. -0.  0.
206  2.05  0.  0.  0.
207  2.06  0.  0.  0.
208  2.07  0.  0.  0.
209  2.08  0.  0.  0.
210  2.09  0.  0.  0.
211  2.10  0.  0.  0.
212  2.11  0.  0.  0.
213  2.12  0.  0.  0.
214  2.13  0.  0.  0.
215  2.14  0.  0.  0.
216  2.15  0.  0.  0.
217  2.16  0.  0.  0.
218  2.17  0.  0.  0.
219  2.18  0.  0.  0.
220  2.19  0.  0.  0.
221  2.20  0.  0.  0.
222  2.21  0.  0.  0.
223  2.22  0.  0.  0.
224  2.23  0.  0.  0.
225  2.24  0.  0.  0.
226  2.25  0.  0.  0.
227  2.26  0.  0.  0.
228  2.27  0.  0.  0.
229  2.28  0.  0.  0.
230  2.29  0.  0.  0.
231  2.30  0.  0.  0.
232  2.31  0.  0.  0.
233  2.32  0.  0.  0.
234  2.33  0.  0.  0.
235  2.34  0.  0.  0.
236  2.35  0.  0.  0.
237  2.36  0.  0.  0.
238  2.37  0.  0.  0.
239  2.38  0.  0.  0.
240  2.39  0.  0.  0.
241  2.40  0.  0.  0.
242  2.41  0.  0.  0.
243  2.42  0.  0.  0.
244  2.43  0.  0.  0.
245  2.44  0.  0.  0.
246  2.45  0.  0.  0.
247  2.46  0.  0.  0.
248  2.47  0.  0.  0.
249  2.48  0.  0.  0.
250  2.49  0.  0.  0.
251  2.50  0.  0.  0.
252  2.51  0.  0.  0.
253  2.52  0.  0.  0.
254  2.53  0.  0.  0.
255  2.54  0.  0.  0.
256  2.55  0.  0.  0.
257  2.56  0.  0.  0.
258  2.57  0.  0.  0.
259  2.58  0.  0.  0.
260  2.59  0.  0.  0.
261  2.60  0.  0.  0.
262  2.61  0.  0.  0.
263  2.62  0.  0.  0.
264  2.63  0.  0.  0.
265  2.64  0.  0.  0.
266  2.65  0.  0.  0.
267  2.66  0.  0.  0.
268  2.67  0.  0.  0.
269  2.68  0.  0.  0.
270  2.69  0.  0.  0.
271  2.70  0.  0.  0.
272  2.71  0.  0.  0.
273  2.72  0.  0.  0.
274  2.73  0.  0.  0.
275  2.74  0.  0.  0.
276  2.75  0.  0.  0.
277  2.76  0.  0.  0.
278  2.77  0.  0.  0.
279  2.78  0.  0.  0.
280  2.79  0.  0.  0.
281  2.80  0.  0.  0.
282  2.81  0.  0.  0.
283  2.82  0.  0.  0.
284  2.83  0.  0.  0.
285  2.84  0.  0.  0.
286  2.85  0.  0.  0.
287  2.86  0.  0.  0.
288  2.87  0.  0.  0.
289  2.88  0.  0.  0.
290  2.89  0.  0.  0.
291  2.90  0.  0.  0.
292  2.91  0.  0.  0.
293  2.92  0.  0.  0.
294  2.93  0.  0.  0.
295  2.94  0.  0.  0.
296  2.95  0.  0.  0.
297  2.96  0.  0.  0.
298  2.97  0.  0.  0.
299  2.98  0.  0.  0.
300  2.99  0.  0.  0.
301  3.00  0.  0.  0.
302  3.01  0.  0.  0.
303  3.02  0.  0.  0.
304  3.03  0.  0.  0.
305  3.04  0.  0.  0.
306  3.05  0.  0.  0.
307  3.06  0.  0.  0.
308  3.07  0.  0.  0.
309  3.08  0.  0.  0.
310  3.09  0.  0.  0.
311  3.10  0.  0.  0.
312  3.11  0.  0.  0.
313  3.12  0.  0.  0.
314  3.13  0.  0.  0.
315  3.14  0.  0.  0.
316  3.15  0.  0.  0.
317  3.16  0.  0.  0.
318  3.17  0.  0.  0.
319  3.18  0.  0.  0.
320  3.19  0.  0.  0.
321  3.20  0.  0.  0.
322  3.21  0.  0.  0.
323  3.22  0.  0.  0.
324  3.23  0.  0.  0.
325  3.24  0.  0.  0.
326  3.25  0.  0.  0.
327  3.26  0.  0.  0.
328  3.27  0.  0.  0.
329  3.28  0.  0.  0.
330  3.29  0.  0.  0.
331  3.30  0.  0.  0.
332  3.31  0.  0.  0.
333  3.32  0.  0.  0.
334  3.33  0.  0.  0.
335  3.34  0.  0.  0.
336  3.35  0.  0.  0.
337  3.36  0.  0.  0.
338  3.37  0.  0.  0.
339  3.38  0.  0.  0.
340  3.39  0.  0.  0.
341  3.40  0.  0.  0.
342  3.41  0.  0.  0.
343  3.42  0.  0.  0.
344  3.43  0.  0.  0.
345  3.44  0.  0.  0.
346  3.45  0.  0.  0.
347  3.46  0.  0.  0.
348  3.47  0.  0.  0.
349  3.48  0.  0.  0.
350  3.49  0.  0.  0.
351  3.50  0.  0.  0.
352  3.51  0.  0.  0.
353  3.52  0.  0.  0.
354  3.53  0.  0.  0.
355  3.54  0.  0.  0.
356  3.55  0.  0.  0.
357  3.56  0.  0.  0.
358  3.57  0.  0.  0.
359  3.58  0.  0.  0.
360  3.59  0.  0.  0.
361  3.60  0.  0.  0.
362  3.61  0.  0.  0.
363  3.62  0.  0.  0.
364  3.63  0.  0.  0.
365  3.64  0.  0.  0.
366  3.65  0.  0.  0.
367  3.66  0.  0.  0.
368  3.67  0.  0.  0.
369  3.68  0.  0.  0.
370  3.69  0.  0.  0.
371  3.70  0.  0.  0.
372  3.71  0.  0.  0.
373  3.72  0.  0.  0.
374  3.73  0.  0.  0.
375  3.74  0.  0.  0.
376  3.75  0.  0.  0.
377  3.76  0.  0.  0.
378  3.77  0.  0.  0.
379  3.78  0.  0.  0.
380  3.79  0.  0.  0.
381  3.80  0.  0.  0.
382  3.81  0.  0.  0.
383  3.82  0.  0.  0.
384  3.83  0.  0.  0.
385  3.84  0.  0.  0.
386  3.85  0.  0.  0.
387  3.86  0.  0.  0.
388  3.87  0.  0.  0.
389  3.88  0.  0.  0.
390  3.89  0.  0.  0.
391  3.90  0.  0.  0.
392  3.91  0.  0.  0.
393  3.92  0.  0.  0.
394  3.93  0.  0.  0.
395  3.94  0.  0.  0.
396  3.95  0.  0.  0.
397  3.96  0.  0.  0.
398  3.97  0.  0.  0.
399  3.98  0.  0.  0.
400  3.99  0.  0.  0.
401  4.00  0.  0.  0.
402  4.01  0.  0.  0.
403  4.02  0.  0.  0.
404  4.03  0.  0.  0.
405  4.04  0.  0.  0.
406  4.05  0.  0.  0.
407  4.06  0.  0.  0.
408  4.07  0.  0.  0.
409  4.08  0.  0.  0.
410  4.09  0.  0.  0.
411  4.10  0.  0.  0.
412  4.11  0.  0.  0.
413  4.12  0.  0.  0.
414  4.13  0.  0.  0.
415  4.14  0.  0.  0.
416  4.15  0.  0.  0.
417  4.16  0.  0.  0.
418  4.17  0.  0.  0.
419  4.18  0.  0.  0.
420  4.19  0.  0.  0.
421  4.20  0.  0.  0.
422  4.21  0.  0.  0.
423  4.22  0.  0.  0.
424  4.23  0.  0.  0.
425  4.24  0.  0.  0.
426  4.25  0.  0.  0.
427  4.26  0.  0.  0.
428  4.27  0.  0.  0.
429  4.28  0.  0.  0.
430  4.29  0.  0.  0.
431  4.30  0.  0.  0.
432  4.31  0.  0.  0.
433  4.32  0.  0.  0.
434  4.33  0.  0.  0.
435  4.34  0.  0.  0.
436  4.35  0.  0.  0.
437  4.36  0.  0.  0.
438  4.37  0.  0.  0.
439  4.38  0.  0.  0.
440  4.39  0.  0.  0.
441  4.40  0.  0.  0.
442  4.41  0.  0.  0.
443  4.42  0.  0.  0.
444  4.43  0.  0.  0.
445  4.44  0.  0.  0.
446  4.45  0.  0.  0.
447  4.46  0.  0.  0.
448  4.47  0.  0.  0.
449  4.48  0.  0.  0.
450  4.49  0.  0.  0.
451  4.50  0.  0.  0.
452  4.51  0.  0.  0.
453  4.52  0.  0.  0.
454  4.53  0.  0.  0.
455  4.54  0.  0.  0.
456  4.55  0.  0.  0.
457  4.56  0.  0.  0.
458  4.57  0.  0.  0.
459  4.58  0.  0.  0.
460  4.59  0.  0.  0.
461  4.60  0.  0.  0.
462  4.61  0.  0.  0.
463  4.62  0.  0.  0.
464  4.63  0.  0.  0.
465  4.64  0.  0.  0.
466  4.65  0.  0.  0.
467  4.66  0.  0.  0.
468  4.67  0.  0.  0.
469  4.68  0.  0.  0.
470  4.69  0.  0.  0.
471  4.70  0.  0.  0.
472  4.71  0.  0.  0.
473  4.72  0.  0.  0.
474  4.73  0.  0.  0.
475  4.74  0.  0.  0.
476  4.75  0.  0.  0.
477  4.76  0.  0.  0.
478  4.77  0.  0.  0.
479  4.78  0.  0.  0.
480  4.79  0.  0.  0.
481  4.80  0.  0.  0.
482  4.81  0.  0.  0.
483  4.82  0.  0.  0.
484  4.83  0.  0.  0.
485  4.84  0.  0.  0.
486  4.85  0.  0.  0.
487  4.86  0.  0.  0.
488  4.87  0.  0.  0.
489  4.88  0.  0.  0.
490  4.89  0.  0.  0.
491  4.90  0.  0.  0.
492  4.91  0.  0.  0.
493  4.92  0.  0.  0.
494  4.93  0.  0.  0.
495  4.94  0.  0.  0.
496  4.95  0.  0.  0.
497  4.96  0.  0.  0.
498  4.97  0.  0.  0.
499  4.98  0.  0.  0.
500  4.99  0.  0.  0.
501  5.00  0.  0.  0.
502  5.01  0.  0.  0.
503  5.02  0.  0.  0.
504  5.03  0.  0.  0.
505  5.04  0.  0.  0.
506  5.05  0.  0.  0.
507  5.06  0.  0.  0.
508  5.07  0.  0.  0.
509  5.08  0.  0.  0.
510  5.09  0.  0.  0.
511  5.10  0.  0.  0.
512  5.11  0.  0.  0.
513  5.12  0.  0.  0.
514  5.13  0.  0.  0.
515  5.14  0.  0.  0.
516  5.15  0.  0.  0.
517  5.16  0.  0.  0.
518  5.17  0.  0.  0.
519  5.18  0.  0.  0.
520  5.19  0.  0.  0.
521  5.20  0.  0.  0.
522  5.21  0.  0.  0.
523  5.22  0.  0.  0.
524  5.23  0.  0.  0.
525  5.24  0.  0.  0.
526  5.25  0.  0.  0.
527  5.26  0.  0.  0.
528  5.27  0.  0.  0.
529  5.28  0.  0.  0.
530  5.29  0.  0.  0.
531  5.30  0.  0.  0.
532  5.31  0.  0.  0.
533  5.32  0.  0.  0.
534  5.33  0.  0.  0.
535  5.34  0.  0.  0.
536  5.35  0.  0.  0.
537  5.36  0.  0.  0.
538  5.37  0.  0.  0.
539  5.38  0.  0.  0.
540  5.39  0.  0.  0.
541  5.40  0.  0.  0.
542  5.41  0.  0.  0.
543  5.42  0.  0.  0.
544  5.43  0.  0.  0.
545  5.44  0.  0.  0.
546  5.45  0.  0.  0.
547  5.46  0.  0.  0.
548  5.47  0.  0.  0.
549  5.48  0.  0.  0.
550  5.49  0.  0.  0.
551  5.50  0.  0.  0.
552  5.51  0.  0.  0.
553  5.52  0.  0.  0.
554  5.53  0.  0.  0.
555  5.54  0.  0.  0.
556  5.55  0.  0.  0.
557  5.56  0.  0.  0.
558  5.57  0.  0.  0.
559  5.58  0.  0.  0.
560  5.59  0.  0.  0.
561  5.60  0.  0.  0.
562  5.61  0.  0.  0.
563  5.62  0.  0.  0.
564  5.63  0.  0.  0.
565  5.64  0.  0.  0.
566  5.65  0.  0.  0.
567  5.66  0.  0.  0.
568  5.67  0.  0.  0.
569  5.68  0.  0.  0.
570  5.69  0.  0.  0.
571  5.70  0.  0.  0.
572  5.71  0.  0.  0.
573  5.72  0.  0.  0.
574  5.73  0.  0.  0.
575  5.74  0.  0.  0.
576  5.75  0.  0.  0.
577  5.76  0.  0.  0.
578  5.77  0.  0.  0.
579  5.78  0.  0.  0.
580  5.79  0.  0.  0.
581  5.80  0.  0.  0.
582  5.81  0.  0.  0.
583  5.82  0.  0.  0.
584  5.83  0.  0.  0.
585  5.84  0.  0.  0.
586  5.85  0.  0.  0.
587  5.86  0.  0.  0.
588  5.87  0.  0.  0.
589  5.88  0.  0.  0.
590  5.89  0.  0.  0.
591  5.90  0.  0.  0.
592  5.91  0.  0.  0.
593  5.92  0.  0.  0.
594  5.93  0.  0.  0.
595  5.94  0.  0.  0.
596  5.95  0.  0.  0.
597  5.96  0.  0.  0.
598  5.97  0.  0.  0.
599  5.98  0.  0.  0.
600  5.99  0.  0.  0.
1                         6.4607168274892E+00  7.2287103846187E-01
1  0.0000000000000E+00  1.0379100745528E-08 -4.3367647029058E-08
2  1.0000000000000E-02  1.2056946751729E-03 -2.6769128646907E-03
3  2.0000000000000E-02  4.8072752917747E-03 -1.0645345870691E-02
4  3.0000000000000E-02  1.0758538816598E-02 -2.3719672558262E-02
5  4.0000000000000E-02  1.8983498066637E-02 -4.1594791022646E-02
6  5.0000000000000E-02  2.9377887263330E-02 -6.3852448488894E-02
7  6.0000000000000E-02  4.1811227720025E-02 -8.9969920024481E-02
8  7.0000000000000E-02  5.6129412546184E-02 -1.1933086973032E-01
9  8.0000000000000E-02  7.2157758872781E-02 -1.5123817938316E-01
10  9.0000000000000E-02  8.9704466715328E-02 -1.8492849024729E-01
11  1.0000000000000E-01  1.0856441537639E-01 -2.1958816938848E-01
12  1.1000000000000E-01  1.2852322140825E-01 -2.5437038297243E-01
13  1.2000000000000E-01  1.4936147674429E-01 -2.8841293627847E-01
14  1.3000000000000E-01  1.7085908177207E-01 -3.2085652395448E-01
15  1.4000000000000E-01  1.9279958594107E-01 -3.5086302471058E-01
16  1.5000000000000E-01  2.1497444802027E-01 -3.7763347239368E-01
17  1.6000000000000E-01  2.3718712936122E-01 -4.0042534027167E-01
18  1.7000000000000E-01  2.5925693646292E-01 -4.1856878731376E-01
19  1.8000000000000E-01  2.8102253372725E-01 -4.3148153408421E-01
20  1.9000000000000E-01  3.0234505345631E-01 -4.3868206123551E-01
21  2.0000000000000E-01  3.2311073776482E-01 -4.3980085503993E-01
22  2.1000000000000E-01  3.4323305602304E-01 -4.3458946136030E-01
23  2.2000000000000E-01  3.6265425154292E-01 -4.2292715125219E-01
24  2.3000000000000E-01  3.8134628228478E-01 -4.0482504723587E-01
25  2.4000000000000E-01  3.9931113218696E-01 -3.8042760832117E-01
26  2.5000000000000E-01  4.1658048208266E-01 -3.5001142319063E-01
27  2.6000000000000E-01  4.3321474183349E-01 -3.1398131357747E-01
28  2.7000000000000E-01  4.4930145803468E-01 -2.7286380281275E-01
29  2.8000000000000E-01  4.6495312418899E-01 -2.2729805674972E-01
30  2.9000000000000E-01  4.8030443236160E-01 -1.7802445479474E-01
31  3.0000000000000E-01  4.9550901677966E-01 -1.2587099660375E-01
32  3.1000000000000E-01  5.1073575040276E-01 -7.1737794202852E-02
33  3.2000000000000E-01  5.2616466495238E-01 -1.6579938986491E-02
34  3.3000000000000E-01  5.4198257305869E-01  3.8610932559933E-02
35  3.4000000000000E-01  5.5837847789277E-01  9.2826022176910E-02
36  3.5000000000000E-01  5.7553886075914E-01  1.4505932815980E-01
37  3.6000000000000E-01  5.9364294051439E-01  1.9432778995352E-01
38  3.7000000000000E-01  6.1285800027124E-01  2.3969122296243E-01
39  3.8000000000000E-01  6.3333487659577E-01  2.8027164784214E-01
40  3.9000000000000E-01  6.5520370429543E-01  3.1527162653968E-01
41  4.0000000000000E-01  6.7857000594891E-01  3.4399123294753E-01
42  4.1000000000000E-01  7.0351120960392E-01  3.6584330900666E-01
43  4.2000000000000E-01  7.3007367065706E-01  3.8036668706026E-01
44  4.3000000000000E-01  7.5827026495623E-01  3.8723709571601E-01
45  4.4000000000000E-01  7.8807860978772E-01  3.8627550878035E-01
46  4.5000000000000E-01  8.1943995781121E-01  3.7745374422733E-01