Nd    ONCVPSP-4.0.1  r_core=   2.00095   1.60366   1.90745   1.60366
60.0000     14.0000      241101    zatom,zion,pspd
8      11   3     4   600     0    pspcod,pspxc,lmax,lloc,mmax,r2well
5.99000000  4.00000000  0.00000000    rchrg fchrg qchrg
2     2     2     2     0    nproj
1     1           extension_switch
0                         7.2322117461350E+00  4.4592527057985E-01
1  0.0000000000000E+00  6.4215743833529E-11 -2.9367766551935E-10
2  1.0000000000000E-02  3.6088408075021E-02 -3.9534226542361E-03
3  2.0000000000000E-02  7.2167365748286E-02 -7.9524244299216E-03
4  3.0000000000000E-02  1.0822724565171E-01 -1.2041904201402E-02
5  4.0000000000000E-02  1.4425806828518E-01 -1.6265407679980E-02
6  5.0000000000000E-02  1.8024933043558E-01 -2.0664469084996E-02
7  6.0000000000000E-02  2.1618983893219E-01 -2.5277974507999E-02
8  7.0000000000000E-02  2.5206755144106E-01 -3.0141553853163E-02
9  8.0000000000000E-02  2.8786942593702E-01 -3.5287007943449E-02
10  9.0000000000000E-02  3.2358128041277E-01 -4.0741777020306E-02
11  1.0000000000000E-01  3.5918766429104E-01 -4.6528456438845E-02
12  1.1000000000000E-01  3.9467174289917E-01 -5.2664364874284E-02
13  1.2000000000000E-01  4.3001519624632E-01 -5.9161169814281E-02
14  1.3000000000000E-01  4.6519813321310E-01 -6.6024574520548E-02
15  1.4000000000000E-01  5.0019902212301E-01 -7.3254070008127E-02
16  1.5000000000000E-01  5.3499463851585E-01 -8.0842754918086E-02
17  1.6000000000000E-01  5.6956003078630E-01 -8.8777225455805E-02
18  1.7000000000000E-01  6.0386850418866E-01 -9.7037536839803E-02
19  1.8000000000000E-01  6.3789162354117E-01 -1.0559723696234E-01
20  1.9000000000000E-01  6.7159923479354E-01 -1.1442347221032E-01
21  2.0000000000000E-01  7.0495950544957E-01 -1.2347716464084E-01
22  2.1000000000000E-01  7.3793898366587E-01 -1.3271325895845E-01
23  2.2000000000000E-01  7.7050267567767E-01 -1.4208103700677E-01
24  2.3000000000000E-01  8.0261414103703E-01 -1.5152449677550E-01
25  2.4000000000000E-01  8.3423560498715E-01 -1.6098279223955E-01
26  2.5000000000000E-01  8.6532808714167E-01 -1.7039072970005E-01
27  2.6000000000000E-01  8.9585154549062E-01 -1.7967931569087E-01
28  2.7000000000000E-01  9.2576503461661E-01 -1.8877635095898E-01
29  2.8000000000000E-01  9.5502687687712E-01 -1.9760706452425E-01
30  2.9000000000000E-01  9.8359484519288E-01 -2.0609478138393E-01
31  3.0000000000000E-01  1.0114263559783E+00 -2.1416161704914E-01
32  3.1000000000000E-01  1.0384786706608E+00 -2.2172919179408E-01
33  3.2000000000000E-01  1.0647091041586E+00 -2.2871935726248E-01
34  3.3000000000000E-01  1.0900752386292E+00 -2.3505492791621E-01
35  3.4000000000000E-01  1.1145351407509E+00 -2.4066040972756E-01
36  3.5000000000000E-01  1.1380475807759E+00 -2.4546271851216E-01
37  3.6000000000000E-01  1.1605722515771E+00 -2.4939188037358E-01
38  3.7000000000000E-01  1.1820699859143E+00 -2.5238170688328E-01
39  3.8000000000000E-01  1.2025029701678E+00 -2.5437043784881E-01
40  3.9000000000000E-01  1.2218349528198E+00 -2.5530134482887E-01
41  4.0000000000000E-01  1.2400314460150E+00 -2.5512328893063E-01
42  4.1000000000000E-01  1.2570599186023E+00 -2.5379122687171E-01
43  4.2000000000000E-01  1.2728899791325E+00 -2.5126665980017E-01
44  4.3000000000000E-01  1.2874935473879E+00 -2.4751801993707E-01
45  4.4000000000000E-01  1.3008450131210E+00 -2.4252099073131E-01
46  4.5000000000000E-01  1.3129213808002E+00 -2.3625875689040E-01
47  4.6000000000000E-01  1.3237023992872E+00 -2.2872218136474E-01
48  4.7000000000000E-01  1.3331706755079E+00 -2.1990990711273E-01
49  4.8000000000000E-01  1.3413117713246E+00 -2.0982838224934E-01
50  4.9000000000000E-01  1.3481142829664E+00 -1.9849180797513E-01
51  5.0000000000000E-01  1.3535699025318E+00 -1.8592200948734E-01
52  5.1000000000000E-01  1.3576734612357E+00 -1.7214823088241E-01
53  5.2000000000000E-01  1.3604229542326E+00 -1.5720685585991E-01
54  5.3000000000000E-01  1.3618195470103E+00 -1.4114105682440E-01
55  5.4000000000000E-01  1.3618675635044E+00 -1.2400037574570E-01
56  5.5000000000000E-01  1.3605744562418E+00 -1.0584024087091E-01
57  5.6000000000000E-01  1.3579507589710E+00 -8.6721424075912E-02
58  5.7000000000000E-01  1.3540100223834E+00 -6.6709444291825E-02
59  5.8000000000000E-01  1.3487687336653E+00 -4.5873923037613E-02
60  5.9000000000000E-01  1.3422462207515E+00 -2.4287898624855E-02
61  6.0000000000000E-01  1.3344645422678E+00 -2.0271060709879E-03
62  6.1000000000000E-01  1.3254483642593E+00  2.0830769843389E-02
63  6.2000000000000E-01  1.3152248248966E+00  4.4206860613829E-02
64  6.3000000000000E-01  1.3038233884343E+00  6.8021891143072E-02
65  6.4000000000000E-01  1.2912756897666E+00  9.2196959795914E-02
66  6.5000000000000E-01  1.2776153709802E+00  1.1665431313068E-01
67  6.6000000000000E-01  1.2628779113446E+00  1.4131810706505E-01
68  6.7000000000000E-01  1.2471004522085E+00  1.6611514632536E-01
69  6.8000000000000E-01  1.2303216182803E+00  1.9097559420339E-01
70  6.9000000000000E-01  1.2125813367698E+00  2.1583364490279E-01
71  7.0000000000000E-01  1.1939206558506E+00  2.4062815109632E-01
72  7.1000000000000E-01  1.1743815638714E+00  2.6530319972979E-01
73  7.2000000000000E-01  1.1540068107017E+00  2.8980862959841E-01
74  7.3000000000000E-01  1.1328397325382E+00  3.1410048477571E-01
75  7.4000000000000E-01  1.1109240814332E+00  3.3814139859507E-01
76  7.5000000000000E-01  1.0883038607252E+00  3.6190090355635E-01
77  7.6000000000000E-01  1.0650231674628E+00  3.8535566325325E-01
78  7.7000000000000E-01  1.0411260428190E+00  4.0848962317997E-01
79  7.8000000000000E-01  1.0166563313854E+00  4.3129407807154E-01
80  7.9000000000000E-01  9.9165755012789E-01  4.5376765425380E-01
81  8.0000000000000E-01  9.6617276767210E-01  4.7591620631511E-01
82  8.1000000000000E-01  9.4024449446541E-01  4.9775262825628E-01
83  8.2000000000000E-01  9.1391458424850E-01  5.1929658011798E-01
84  8.3000000000000E-01  8.8722414714602E-01  5.4057413191748E-01
85  8.4000000000000E-01  8.6021347456979E-01  5.6161732754090E-01
86  8.5000000000000E-01  8.3292197601140E-01  5.8246367202432E-01
87  8.6000000000000E-01  8.0538812768900E-01  6.0315554641079E-01
88  8.7000000000000E-01  7.7764943290530E-01  6.2373955508129E-01
89  8.8000000000000E-01  7.4974239387260E-01  6.4426581112115E-01
90  8.9000000000000E-01  7.2170249466488E-01  6.6478716589232E-01
91  9.0000000000000E-01  6.9356419487005E-01  6.8535838953168E-01
92  9.1000000000000E-01  6.6536093343540E-01  7.0603530958102E-01
93  9.2000000000000E-01  6.3712514212889E-01  7.2687391537279E-01
94  9.3000000000000E-01  6.0888826797615E-01  7.4792943614505E-01
95  9.4000000000000E-01  5.8068080398087E-01  7.6925540113478E-01
96  9.5000000000000E-01  5.5253232739130E-01  7.9090269010516E-01
97  9.6000000000000E-01  5.2447154474124E-01  8.1291858289479E-01
98  9.7000000000000E-01  4.9652634286640E-01  8.3534581663934E-01
99  9.8000000000000E-01  4.6872384507884E-01  8.5822165931098E-01
100  9.9000000000000E-01  4.4109047167030E-01  8.8157700814860E-01
101  1.0000000000000E+00  4.1365200391069E-01  9.0543552142025E-01
102  1.0100000000000E+00  3.8643365070847E-01  9.2981279176838E-01
103  1.0200000000000E+00  3.5946011710530E-01  9.5471556914673E-01
104  1.0300000000000E+00  3.3275567378627E-01  9.8014104107022E-01
105  1.0400000000000E+00  3.0634422679850E-01  1.0060761775701E+00
106  1.0500000000000E+00  2.8024938668382E-01  1.0324971478844E+00
107  1.0600000000000E+00  2.5449453624442E-01  1.0593688155244E+00
108  1.0700000000000E+00  2.2910289617222E-01  1.0866443179449E+00
109  1.0800000000000E+00  2.0409758778322E-01  1.1142647366228E+00
110  1.0900000000000E+00  1.7950169210537E-01  1.1421588629089E+00
111  1.1000000000000E+00  1.5533830457194E-01  1.1702430645811E+00
112  1.1100000000000E+00  1.3163058457175E-01  1.1984212575864E+00
113  1.1200000000000E+00  1.0840179910165E-01  1.2265849870235E+00
114  1.1300000000000E+00  8.5675359756184E-02  1.2546136209898E+00
115  1.1400000000000E+00  6.3474852272710E-02  1.2823746604946E+00
116  1.1500000000000E+00  4.1824057829732E-02  1.3097241682309E+00
117  1.1600000000000E+00  2.0746965270314E-02  1.3365073185880E+00
118  1.1700000000000E+00  2.6777339369329E-04  1.3625590708914E+00
119  1.1800000000000E+00 -1.9589117573575E-02  1.3877049674496E+00
120  1.1900000000000E+00 -3.8799126247552E-02  1.4117620575825E+00
121  1.2000000000000E+00 -5.7337523050110E-02  1.4345399483801E+00
122  1.2100000000000E+00 -7.5179476845210E-02  1.4558419824909E+00
123  1.2200000000000E+00 -9.2300116250134E-02  1.4754665427558E+00
124  1.2300000000000E+00 -1.0867460663628E-01  1.4932084829607E+00
125  1.2400000000000E+00 -1.2427824383436E-01  1.5088606833804E+00
126  1.2500000000000E+00 -1.3908656554304E-01  1.5222157290936E+00
127  1.2600000000000E+00 -1.5307548140306E-01  1.5330677082492E+00
128  1.2700000000000E+00 -1.6622142263772E-01  1.5412141265472E+00
129  1.2800000000000E+00 -1.7850151206866E-01  1.5464579331161E+00
130  1.2900000000000E+00 -1.8989375518848E-01  1.5486096517158E+00
131  1.3000000000000E+00 -2.0037725280519E-01  1.5474896097470E+00
132  1.3100000000000E+00 -2.0993243555748E-01  1.5429302558481E+00
133  1.3200000000000E+00 -2.1854132033294E-01  1.5347785549092E+00
134  1.3300000000000E+00 -2.2618778829506E-01  1.5228984470906E+00
135  1.3400000000000E+00 -2.3285788383114E-01  1.5071733548422E+00
136  1.3500000000000E+00 -2.3854013326778E-01  1.4875087189848E+00
137  1.3600000000000E+00 -2.4322588165330E-01  1.4638345415567E+00
138  1.3700000000000E+00 -2.4690964527597E-01  1.4361079093680E+00
139  1.3800000000000E+00 -2.4958947685410E-01  1.4043154679153E+00
140  1.3900000000000E+00 -2.5126733950508E-01  1.3684758105504E+00
141  1.4000000000000E+00 -2.5194948465587E-01  1.3286417424470E+00
142  1.4100000000000E+00 -2.5164682799754E-01  1.2849023729765E+00
143  1.4200000000000E+00 -2.5037531639649E-01  1.2373849835194E+00
144  1.4300000000000E+00 -2.4815627734786E-01  1.1862566104492E+00
145  1.4400000000000E+00 -2.4501674108833E-01  1.1317252750225E+00
146  1.4500000000000E+00 -2.4098972386048E-01  1.0740407831044E+00
147  1.4600000000000E+00 -2.3611445902870E-01  1.0134950079934E+00
148  1.4700000000000E+00 -2.3043656079616E-01  9.5042155914163E-01
149  1.4800000000000E+00 -2.2400810311324E-01  8.8519472800589E-01
150  1.4900000000000E+00 -2.1688759403999E-01  8.1822758984890E-01
151  1.5000000000000E+00 -2.0913982327791E-01  7.4996912674378E-01
152  1.5100000000000E+00 -2.0083555782832E-01  6.8090022237513E-01
153  1.5200000000000E+00 -1.9205105774838E-01  6.1152836337843E-01
154  1.5300000000000E+00 -1.8286738074639E-01  5.4238086483251E-01
155  1.5400000000000E+00 -1.7336944088190E-01  4.7399641909614E-01
156  1.5500000000000E+00 -1.6364478289096E-01  4.0691474733757E-01
157  1.5600000000000E+00 -1.5378202962229E-01  3.4166411173257E-01
158  1.5700000000000E+00 -1.4386895575614E-01  2.7874642345264E-01
159  1.5800000000000E+00 -1.3399013495926E-01  2.1861964502235E-01
160  1.5900000000000E+00 -1.2422410392317E-01  1.6167717292900E-01
161  1.6000000000000E+00 -1.1464005769065E-01  1.0822449862380E-01
162  1.6100000000000E+00 -1.0529367754089E-01  5.8449948010726E-02
163  1.6200000000000E+00 -9.6227781858475E-02  1.2438571817415E-02
164  1.6300000000000E+00 -8.7478809259019E-02 -2.9766290045472E-02
165  1.6400000000000E+00 -7.9079304107902E-02 -6.8140128035612E-02
166  1.6500000000000E+00 -7.1057599893560E-02 -1.0267958193518E-01
167  1.6600000000000E+00 -6.3437807921762E-02 -1.3340213322740E-01
168  1.6700000000000E+00 -5.6239787475462E-02 -1.6034609479341E-01
169  1.6800000000000E+00 -4.9479148136228E-02 -1.8357043311564E-01
170  1.6900000000000E+00 -4.3167285535940E-02 -2.0315441429002E-01
171  1.7000000000000E+00 -3.7311449372789E-02 -2.1919708369488E-01
172  1.7100000000000E+00 -3.1914843220268E-02 -2.3181658191519E-01
173  1.7200000000000E+00 -2.6976755420504E-02 -2.4114930065788E-01
174  1.7300000000000E+00 -2.2492720022512E-02 -2.4734888427902E-01
175  1.7400000000000E+00 -1.8454706496304E-02 -2.5058508365661E-01
176  1.7500000000000E+00 -1.4851336650026E-02 -2.5104247084832E-01
177  1.7600000000000E+00 -1.1668126959616E-02 -2.4891902405347E-01
178  1.7700000000000E+00 -8.8877542759293E-03 -2.4442459371627E-01
179  1.7800000000000E+00 -6.4903426339077E-03 -2.3777926192882E-01
180  1.7900000000000E+00 -4.4537687209197E-03 -2.2921160811100E-01
181  1.8000000000000E+00 -2.7539833596708E-03 -2.1895689506206E-01
182  1.8100000000000E+00 -1.3653462680109E-03 -2.0725518986778E-01
183  1.8200000000000E+00 -2.6097093939735E-04 -1.9434943685200E-01
184  1.8300000000000E+00  5.8692292176972E-04 -1.8048349545349E-01
185  1.8400000000000E+00  1.2066523692791E-03 -1.6590015852516E-01
186  1.8500000000000E+00  1.6267152213314E-03 -1.5083918518717E-01
187  1.8600000000000E+00  1.8754329602722E-03 -1.3553532790751E-01
188  1.8700000000000E+00  1.9806033580301E-03 -1.2021641833176E-01
189  1.8800000000000E+00  1.9691418399046E-03 -1.0510142475028E-01
190  1.8900000000000E+00  1.8668060202808E-03 -9.0398847939265E-02
191  1.9000000000000E+00  1.6977669708016E-03 -7.6304582493236E-02
192  1.9100000000000E+00  1.4827700504765E-03 -6.2994213661837E-02
193  1.9200000000000E+00  1.2402752892257E-03 -5.0626895390751E-02
194  1.9300000000000E+00  9.8959984859874E-04 -3.9357281581384E-02
195  1.9400000000000E+00  7.4719081534096E-04 -2.9320933621045E-02
196  1.9500000000000E+00  5.2660007132281E-04 -2.0633847034590E-02
197  1.9600000000000E+00  3.3826508194937E-04 -1.3391303256265E-02
198  1.9700000000000E+00  1.8941324018709E-04 -7.6694354422997E-03
199  1.9800000000000E+00  8.3527316501011E-05 -3.5032170821768E-03
200  1.9900000000000E+00  2.1905751724559E-05 -9.6686006934598E-04
201  2.0000000000000E+00  6.2428955265486E-07 -2.9519898476997E-05
202  2.0100000000000E+00 -6.0779809449197E-07  2.9313907595594E-05
203  2.0200000000000E+00  3.4024624602456E-07 -1.5610297488224E-05
204  2.03 -0.  0.
205  2.04 -0. -0.
206  2.05  0.  0.
207  2.06  0.  0.
208  2.07  0.  0.
209  2.08  0.  0.
210  2.09  0.  0.
211  2.10  0.  0.
212  2.11  0.  0.
213  2.12  0.  0.
214  2.13  0.  0.
215  2.14  0.  0.
216  2.15  0.  0.
217  2.16  0.  0.
218  2.17  0.  0.
219  2.18  0.  0.
220  2.19  0.  0.
221  2.20  0.  0.
222  2.21  0.  0.
223  2.22  0.  0.
224  2.23  0.  0.
225  2.24  0.  0.
226  2.25  0.  0.
227  2.26  0.  0.
228  2.27  0.  0.
229  2.28  0.  0.
230  2.29  0.  0.
231  2.30  0.  0.
232  2.31  0.  0.
233  2.32  0.  0.
234  2.33  0.  0.
235  2.34  0.  0.
236  2.35  0.  0.
237  2.36  0.  0.
238  2.37  0.  0.
239  2.38  0.  0.
240  2.39  0.  0.
241  2.40  0.  0.
242  2.41  0.  0.
243  2.42  0.  0.
244  2.43  0.  0.
245  2.44  0.  0.
246  2.45  0.  0.
247  2.46  0.  0.
248  2.47  0.  0.
249  2.48  0.  0.
250  2.49  0.  0.
251  2.50  0.  0.
252  2.51  0.  0.
253  2.52  0.  0.
254  2.53  0.  0.
255  2.54  0.  0.
256  2.55  0.  0.
257  2.56  0.  0.
258  2.57  0.  0.
259  2.58  0.  0.
260  2.59  0.  0.
261  2.60  0.  0.
262  2.61  0.  0.
263  2.62  0.  0.
264  2.63  0.  0.
265  2.64  0.  0.
266  2.65  0.  0.
267  2.66  0.  0.
268  2.67  0.  0.
269  2.68  0.  0.
270  2.69  0.  0.
271  2.70  0.  0.
272  2.71  0.  0.
273  2.72  0.  0.
274  2.73  0.  0.
275  2.74  0.  0.
276  2.75  0.  0.
277  2.76  0.  0.
278  2.77  0.  0.
279  2.78  0.  0.
280  2.79  0.  0.
281  2.80  0.  0.
282  2.81  0.  0.
283  2.82  0.  0.
284  2.83  0.  0.
285  2.84  0.  0.
286  2.85  0.  0.
287  2.86  0.  0.
288  2.87  0.  0.
289  2.88  0.  0.
290  2.89  0.  0.
291  2.90  0.  0.
292  2.91  0.  0.
293  2.92  0.  0.
294  2.93  0.  0.
295  2.94  0.  0.
296  2.95  0.  0.
297  2.96  0.  0.
298  2.97  0.  0.
299  2.98  0.  0.
300  2.99  0.  0.
301  3.00  0.  0.
302  3.01  0.  0.
303  3.02  0.  0.
304  3.03  0.  0.
305  3.04  0.  0.
306  3.05  0.  0.
307  3.06  0.  0.
308  3.07  0.  0.
309  3.08  0.  0.
310  3.09  0.  0.
311  3.10  0.  0.
312  3.11  0.  0.
313  3.12  0.  0.
314  3.13  0.  0.
315  3.14  0.  0.
316  3.15  0.  0.
317  3.16  0.  0.
318  3.17  0.  0.
319  3.18  0.  0.
320  3.19  0.  0.
321  3.20  0.  0.
322  3.21  0.  0.
323  3.22  0.  0.
324  3.23  0.  0.
325  3.24  0.  0.
326  3.25  0.  0.
327  3.26  0.  0.
328  3.27  0.  0.
329  3.28  0.  0.
330  3.29  0.  0.
331  3.30  0.  0.
332  3.31  0.  0.
333  3.32  0.  0.
334  3.33  0.  0.
335  3.34  0.  0.
336  3.35  0.  0.
337  3.36  0.  0.
338  3.37  0.  0.
339  3.38  0.  0.
340  3.39  0.  0.
341  3.40  0.  0.
342  3.41  0.  0.
343  3.42  0.  0.
344  3.43  0.  0.
345  3.44  0.  0.
346  3.45  0.  0.
347  3.46  0.  0.
348  3.47  0.  0.
349  3.48  0.  0.
350  3.49  0.  0.
351  3.50  0.  0.
352  3.51  0.  0.
353  3.52  0.  0.
354  3.53  0.  0.
355  3.54  0.  0.
356  3.55  0.  0.
357  3.56  0.  0.
358  3.57  0.  0.
359  3.58  0.  0.
360  3.59  0.  0.
361  3.60  0.  0.
362  3.61  0.  0.
363  3.62  0.  0.
364  3.63  0.  0.
365  3.64  0.  0.
366  3.65  0.  0.
367  3.66  0.  0.
368  3.67  0.  0.
369  3.68  0.  0.
370  3.69  0.  0.
371  3.70  0.  0.
372  3.71  0.  0.
373  3.72  0.  0.
374  3.73  0.  0.
375  3.74  0.  0.
376  3.75  0.  0.
377  3.76  0.  0.
378  3.77  0.  0.
379  3.78  0.  0.
380  3.79  0.  0.
381  3.80  0.  0.
382  3.81  0.  0.
383  3.82  0.  0.
384  3.83  0.  0.
385  3.84  0.  0.
386  3.85  0.  0.
387  3.86  0.  0.
388  3.87  0.  0.
389  3.88  0.  0.
390  3.89  0.  0.
391  3.90  0.  0.
392  3.91  0.  0.
393  3.92  0.  0.
394  3.93  0.  0.
395  3.94  0.  0.
396  3.95  0.  0.
397  3.96  0.  0.
398  3.97  0.  0.
399  3.98  0.  0.
400  3.99  0.  0.
401  4.00  0.  0.
402  4.01  0.  0.
403  4.02  0.  0.
404  4.03  0.  0.
405  4.04  0.  0.
406  4.05  0.  0.
407  4.06  0.  0.
408  4.07  0.  0.
409  4.08  0.  0.
410  4.09  0.  0.
411  4.10  0.  0.
412  4.11  0.  0.
413  4.12  0.  0.
414  4.13  0.  0.
415  4.14  0.  0.
416  4.15  0.  0.
417  4.16  0.  0.
418  4.17  0.  0.
419  4.18  0.  0.
420  4.19  0.  0.
421  4.20  0.  0.
422  4.21  0.  0.
423  4.22  0.  0.
424  4.23  0.  0.
425  4.24  0.  0.
426  4.25  0.  0.
427  4.26  0.  0.
428  4.27  0.  0.
429  4.28  0.  0.
430  4.29  0.  0.
431  4.30  0.  0.
432  4.31  0.  0.
433  4.32  0.  0.
434  4.33  0.  0.
435  4.34  0.  0.
436  4.35  0.  0.
437  4.36  0.  0.
438  4.37  0.  0.
439  4.38  0.  0.
440  4.39  0.  0.
441  4.40  0.  0.
442  4.41  0.  0.
443  4.42  0.  0.
444  4.43  0.  0.
445  4.44  0.  0.
446  4.45  0.  0.
447  4.46  0.  0.
448  4.47  0.  0.
449  4.48  0.  0.
450  4.49  0.  0.
451  4.50  0.  0.
452  4.51  0.  0.
453  4.52  0.  0.
454  4.53  0.  0.
455  4.54  0.  0.
456  4.55  0.  0.
457  4.56  0.  0.
458  4.57  0.  0.
459  4.58  0.  0.
460  4.59  0.  0.
461  4.60  0.  0.
462  4.61  0.  0.
463  4.62  0.  0.
464  4.63  0.  0.
465  4.64  0.  0.
466  4.65  0.  0.
467  4.66  0.  0.
468  4.67  0.  0.
469  4.68  0.  0.
470  4.69  0.  0.
471  4.70  0.  0.
472  4.71  0.  0.
473  4.72  0.  0.
474  4.73  0.  0.
475  4.74  0.  0.
476  4.75  0.  0.
477  4.76  0.  0.
478  4.77  0.  0.
479  4.78  0.  0.
480  4.79  0.  0.
481  4.80  0.  0.
482  4.81  0.  0.
483  4.82  0.  0.
484  4.83  0.  0.
485  4.84  0.  0.
486  4.85  0.  0.
487  4.86  0.  0.
488  4.87  0.  0.
489  4.88  0.  0.
490  4.89  0.  0.
491  4.90  0.  0.
492  4.91  0.  0.
493  4.92  0.  0.
494  4.93  0.  0.
495  4.94  0.  0.
496  4.95  0.  0.
497  4.96  0.  0.
498  4.97  0.  0.
499  4.98  0.  0.
500  4.99  0.  0.
501  5.00  0.  0.
502  5.01  0.  0.
503  5.02  0.  0.
504  5.03  0.  0.
505  5.04  0.  0.
506  5.05  0.  0.
507  5.06  0.  0.
508  5.07  0.  0.
509  5.08  0.  0.
510  5.09  0.  0.
511  5.10  0.  0.
512  5.11  0.  0.
513  5.12  0.  0.
514  5.13  0.  0.
515  5.14  0.  0.
516  5.15  0.  0.
517  5.16  0.  0.
518  5.17  0.  0.
519  5.18  0.  0.
520  5.19  0.  0.
521  5.20  0.  0.
522  5.21  0.  0.
523  5.22  0.  0.
524  5.23  0.  0.
525  5.24  0.  0.
526  5.25  0.  0.
527  5.26  0.  0.
528  5.27  0.  0.
529  5.28  0.  0.
530  5.29  0.  0.
531  5.30  0.  0.
532  5.31  0.  0.
533  5.32  0.  0.
534  5.33  0.  0.
535  5.34  0.  0.
536  5.35  0.  0.
537  5.36  0.  0.
538  5.37  0.  0.
539  5.38  0.  0.
540  5.39  0.  0.
541  5.40  0.  0.
542  5.41  0.  0.
543  5.42  0.  0.
544  5.43  0.  0.
545  5.44  0.  0.
546  5.45  0.  0.
547  5.46  0.  0.
548  5.47  0.  0.
549  5.48  0.  0.
550  5.49  0.  0.
551  5.50  0.  0.
552  5.51  0.  0.
553  5.52  0.  0.
554  5.53  0.  0.
555  5.54  0.  0.
556  5.55  0.  0.
557  5.56  0.  0.
558  5.57  0.  0.
559  5.58  0.  0.
560  5.59  0.  0.
561  5.60  0.  0.
562  5.61  0.  0.
563  5.62  0.  0.
564  5.63  0.  0.
565  5.64  0.  0.
566  5.65  0.  0.
567  5.66  0.  0.
568  5.67  0.  0.
569  5.68  0.  0.
570  5.69  0.  0.
571  5.70  0.  0.
572  5.71  0.  0.
573  5.72  0.  0.
574  5.73  0.  0.
575  5.74  0.  0.
576  5.75  0.  0.
577  5.76  0.  0.
578  5.77  0.  0.
579  5.78  0.  0.
580  5.79  0.  0.
581  5.80  0.  0.
582  5.81  0.  0.
583  5.82  0.  0.
584  5.83  0.  0.
585  5.84  0.  0.
586  5.85  0.  0.
587  5.86  0.  0.
588  5.87  0.  0.
589  5.88  0.  0.
590  5.89  0.  0.
591  5.90  0.  0.
592  5.91  0.  0.
593  5.92  0.  0.
594  5.93  0.  0.
595  5.94  0.  0.
596  5.95  0.  0.
597  5.96  0.  0.
598  5.97  0.  0.
599  5.98  0.  0.
600  5.99  0.  0.
1                         4.6696789776289E+00  8.9684912822345E-01
1  0.0000000000000E+00  1.3623432923437E-08 -5.0519961686257E-08
2  1.0000000000000E-02  1.4047420303779E-03 -2.3947544233502E-03
3  2.0000000000000E-02  5.5991206902369E-03 -9.5104945783887E-03
4  3.0000000000000E-02  1.2523993192587E-02 -2.1143129651752E-02
5  4.0000000000000E-02  2.2082111872740E-02 -3.6957406920989E-02
6  5.0000000000000E-02  3.4140081667620E-02 -5.6494155965892E-02
7  6.0000000000000E-02  4.8531045168827E-02 -7.9180225171797E-02
8  7.0000000000000E-02  6.5058041137252E-02 -1.0434090995488E-01
9  8.0000000000000E-02  8.3497968743588E-02 -1.3121462161946E-01
10  9.0000000000000E-02  1.0360607750511E-01 -1.5896950014844E-01
11  1.0000000000000E-01  1.2512089216690E-01 -1.8672163442513E-01
12  1.1000000000000E-01  1.4776947283793E-01 -2.1355452017532E-01
13  1.2000000000000E-01  1.7127290371714E-01 -2.3853935996016E-01
14  1.3000000000000E-01  1.9535189887202E-01 -2.6075579136425E-01
15  1.4000000000000E-01  2.1973241086316E-01 -2.7931261948056E-01
16  1.5000000000000E-01  2.4415112759854E-01 -2.9336812810864E-01
17  1.6000000000000E-01  2.6836074466720E-01 -3.0214955080924E-01
18  1.7000000000000E-01  2.9213490451079E-01 -3.0497129798835E-01
19  1.8000000000000E-01  3.1527270007192E-01 -3.0125155924802E-01
20  1.9000000000000E-01  3.3760264889244E-01 -2.9052693091518E-01
21  2.0000000000000E-01  3.5898605386835E-01 -2.7246475637036E-01
22  2.1000000000000E-01  3.7931967880642E-01 -2.4687291083523E-01
23  2.2000000000000E-01  3.9853768034481E-01 -2.1370681180666E-01
24  2.3000000000000E-01  4.1661275243893E-01 -1.7307349040144E-01
25  2.4000000000000E-01  4.3355645519368E-01 -1.2523261646530E-01
26  2.5000000000000E-01  4.4941871604406E-01 -7.0594430295955E-02
27  2.6000000000000E-01  4.6428650783308E-01 -9.7145950744057E-03
28  2.7000000000000E-01  4.7828172488761E-01  5.6713954594132E-02
29  2.8000000000000E-01  4.9155829442641E-01  1.2787203245189E-01
30  2.9000000000000E-01  5.0429857623006E-01  2.0282789522605E-01
31  3.0000000000000E-01  5.1670911815304E-01  2.8055336426099E-01
32  3.1000000000000E-01  5.2901584847189E-01  3.5994207637213E-01
33  3.2000000000000E-01  5.4145879797068E-01  4.3982952176319E-01
34  3.3000000000000E-01  5.5428645482603E-01  5.1901448887519E-01
35  3.4000000000000E-01  5.6774986355708E-01  5.9628150524915E-01
36  3.5000000000000E-01  5.8209658538133E-01  6.7042384052676E-01
37  3.6000000000000E-01  5.9756464113041E-01  7.4026662307833E-01
38  3.7000000000000E-01  6.1437655934199E-01  8.0468961577346E-01
39  3.8000000000000E-01  6.3273365121020E-01  8.6264919926766E-01
40  3.9000000000000E-01  6.5281063074772E-01  9.1319912287376E-01
41  4.0000000000000E-01  6.7475069283551E-01  9.5550960345154E-01
42  4.1000000000000E-01  6.9866115390378E-01  9.8888438145059E-01
43  4.2000000000000E-01  7.2460974993702E-01  1.0127753797820E+00
44  4.3000000000000E-01  7.5262167450495E-01  1.0267946549242E+00
45  4.4000000000000E-01  7.8267742580821E-01  1.0307233797931E+00
46  4.5000000000000E-01  8.1471151654341E-01  1.0245176535062E+00
47  4.6000000000000E-01  8.4861208401976E-01  1.0083109932108E+00
48  4.7000000000000E-01  8.8422142070589E-01  9.8241342649826E-01
49  4.8000000000000E-01  9.2133742757638E-01  9.4730716840109E-01
50  4.9000000000000E-01  9.5971597460420E-01  9.0363893330571E-01
51  5.0000000000000E-01  9.9907413485231E-01  8.5220899805324E-01
52  5.1000000000000E-01  1.0390942412031E+00  7.9395719675425E-01
53  5.2000000000000E-01  1.0794286981685E+00  7.2994608916876E-01
54  5.3000000000000E-01  1.1197054657728E+00  6.6134160168626E-01
55  5.4000000000000E-01  1.1595341185039E+00  5.8939149185035E-01
56  5.5000000000000E-01  1.1985123700684E+00  5.1540203296095E-01
57  5.6000000000000E-01  1.2362329444160E+00  4.4071335362464E-01
58  5.7000000000000E-01  1.2722906654295E+00  3.6667389740926E-01
59  5.8000000000000E-01  1.3062896319915E+00  2.9461448934067E-01
60  5.9000000000000E-01  1.3378503419608E+00  2.2582250836616E-01
61  6.0000000000000E-01  1.3666166280133E+00  1.6151666778262E-01
62  6.1000000000000E-01  1.3922622703473E+00  1.0282289884834E-01
63  6.2000000000000E-01  1.4144971559239E+00  5.0751816410105E-02
64  6.3000000000000E-01  1.4330728611247E+00  6.1782196121011E-03
65  6.4000000000000E-01  1.4477875443636E+00 -3.0176953980691E-02
66  6.5000000000000E-01  1.4584900471153E+00 -5.7761845626719E-02
67  6.6000000000000E-01  1.4650831158162E+00 -7.6205739547138E-02
68  6.7000000000000E-01  1.4675256729053E+00 -8.5327706959759E-02
69  6.8000000000000E-01  1.4658340826176E+00 -8.5141626161484E-02
70  6.9000000000000E-01  1.4600823757013E+00 -7.5857442499453E-02
71  7.0000000000000E-01  1.4504014166635E+00 -5.7878603020599E-02
72  7.1000000000000E-01  1.4369770170895E+00 -3.1795673490856E-02
73  7.2000000000000E-01  1.4200470186532E+00  1.6237810703275E-03
74  7.3000000000000E-01  1.3998973892597E+00  4.1448898563954E-02
75  7.4000000000000E-01  1.3768573949550E+00  8.6602580530526E-02
76  7.5000000000000E-01  1.3512939284275E+00  1.3588162045676E-01
77  7.6000000000000E-01  1.3236050917572E+00  1.8797954682765E-01
78  7.7000000000000E-01  1.2942131462088E+00  2.4151177233392E-01
79  7.8000000000000E-01  1.2635569550082E+00  2.9504259215195E-01
80  7.9000000000000E-01  1.2320840559184E+00  3.4711353396560E-01
81  8.0000000000000E-01  1.2002425088210E+00  3.9627253124260E-01
82  8.1000000000000E-01  1.1684726692155E+00  4.4110336988520E-01
83  8.2000000000000E-01  1.1371990414586E+00  4.8025484724188E-01
84  8.3000000000000E-01  1.1068223655791E+00  5.1246908189627E-01
85  8.4000000000000E-01  1.0777120886117E+00  5.3660842274712E-01
86  8.5000000000000E-01  1.0501993656135E+00  5.5168042655885E-01
87  8.6000000000000E-01  1.0245707269508E+00  5.5686040409612E-01
88  8.7000000000000E-01  1.0010625372082E+00  5.5151107565830E-01
89  8.8000000000000E-01  9.7985635736948E-01  5.3519892661180E-01
90  8.9000000000000E-01  9.6107530598581E-01  5.0770691151138E-01
91  9.0000000000000E-01  9.4478149716847E-01  4.6904322057554E-01
92  9.1000000000000E-01  9.3097461374440E-01  4.1944589345908E-01
93  9.2000000000000E-01  9.1959165314494E-01  3.5938314115041E-01
94  9.3000000000000E-01  9.1050786194961E-01  2.8954931601184E-01
95  9.4000000000000E-01  9.0353885287573E-01  2.1085655101184E-01
96  9.5000000000000E-01  8.9844387581002E-01  1.2442217054299E-01
97  9.6000000000000E-01  8.9493019263594E-01  3.1552055352836E-02
98  9.7000000000000E-01  8.9265848453370E-01 -6.6279778477022E-02
99  9.8000000000000E-01  8.9124920052821E-01 -1.6745505338648E-01
100  9.9000000000000E-01  8.9028973770895E-01 -2.7023815633503E-01
101  1.0000000000000E+00  8.8934232711119E-01 -3.7280565562673E-01
102  1.0100000000000E+00  8.8795248503628E-01 -4.7327789470392E-01
103  1.0200000000000E+00  8.8565787790206E-01 -5.6975210570291E-01
104  1.0300000000000E+00  8.8199743977508E-01 -6.6033645223611E-01
105  1.0400000000000E+00  8.7652057572593E-01 -7.4318438822830E-01
106  1.0500000000000E+00  8.6879628121564E-01 -8.1652870824720E-01
107  1.0600000000000E+00  8.5842200791330E-01 -8.7871466481605E-01
108  1.0700000000000E+00  8.4503210970197E-01 -9.2823153983870E-01
109  1.0800000000000E+00  8.2830570908330E-01 -9.6374208026467E-01
110  1.0900000000000E+00  8.0797383364760E-01 -9.8410924214823E-01
111  1.1000000000000E+00  7.8382568459085E-01 -9.8841973179031E-01
112  1.1100000000000E+00  7.5571391415218E-01 -9.7600388668552E-01
113  1.1200000000000E+00  7.2355880618003E-01 -9.4645150204111E-01
114  1.1300000000000E+00  6.8735127329255E-01 -8.9962327880455E-01
115  1.1400000000000E+00  6.4715460521682E-01 -8.3565764621553E-01
116  1.1500000000000E+00  6.0310492512248E-01 -7.5497279315432E-01
117  1.1600000000000E+00  5.5541033412833E-01 -6.5826382807196E-01
118  1.1700000000000E+00  5.0434874775840E-01 -5.4649507378475E-01
119  1.1800000000000E+00  4.5026445199956E-01 -4.2088759105611E-01
120  1.1900000000000E+00  3.9356342987799E-01 -2.8290211042893E-01
121  1.2000000000000E+00  3.3470753206861E-01 -1.3421763500066E-01
122  1.2100000000000E+00  2.7420758631306E-01  2.3293944686463E-02
123  1.2200000000000E+00  2.1261556004412E-01  1.8759680985381E-01
124  1.2300000000000E+00  1.5051590831133E-01  3.5652326729811E-01
125  1.2400000000000E+00  8.8516254339652E-02  5.2780836148345E-01
126  1.2500000000000E+00  2.7237562804194E-02  6.9912646072505E-01
127  1.2600000000000E+00 -3.2696024279702E-02  8.6812919603615E-01
128  1.2700000000000E+00 -9.0667512346558E-02  1.0324841048826E+00
129  1.2800000000000E+00 -1.4607735937417E-01  1.1899133171130E+00
130  1.2900000000000E+00 -1.9835358051186E-01  1.3382316172784E+00
131  1.3000000000000E+00 -2.4696147425331E-01  1.4753832260244E+00
132  1.3100000000000E+00 -2.9141279819685E-01  1.5994766635320E+00
133  1.3200000000000E+00 -3.3127423151374E-01  1.7088170893782E+00
134  1.3300000000000E+00 -3.6617497320268E-01  1.8019355550694E+00