Nd    ONCVPSP-4.0.1  r_core=   2.00095   1.60366   1.80747   1.85124
60.0000     14.0000      221106    zatom,zion,pspd
8      11   3     4   600     0    pspcod,pspxc,lmax,lloc,mmax,r2well
5.99000000  0.25000000  0.00000000    rchrg fchrg qchrg
2     2     2     2     0    nproj
1     1           extension_switch
0                         7.2272338678874E+00  4.4134195934546E-01
1  0.0000000000000E+00  6.2648553011968E-11 -2.8672871715818E-10
2  1.0000000000000E-02  3.6152369232107E-02 -4.2350648509058E-03
3  2.0000000000000E-02  7.2294849025945E-02 -8.5138312615938E-03
4  3.0000000000000E-02  1.0841737694956E-01 -1.2879337947612E-02
5  4.0000000000000E-02  1.4450954634440E-01 -1.7373305090331E-02
6  5.0000000000000E-02  1.8056043859795E-01 -2.2035492882063E-02
7  6.0000000000000E-02  2.1655846063468E-01 -2.6903081240830E-02
8  7.0000000000000E-02  2.5249118929083E-01 -3.2010077411834E-02
9  8.0000000000000E-02  2.8834522417557E-01 -3.7386757885934E-02
10  9.0000000000000E-02  3.2410605054413E-01 -4.3059150712590E-02
11  1.0000000000000E-01  3.5975791361743E-01 -4.9048563868911E-02
12  1.1000000000000E-01  3.9528370567824E-01 -5.5371164872089E-02
13  1.2000000000000E-01  4.3066486715838E-01 -6.2037616294191E-02
14  1.3000000000000E-01  4.6588130280346E-01 -6.9052771261371E-02
15  1.4000000000000E-01  5.0091131386537E-01 -7.6415432399666E-02
16  1.5000000000000E-01  5.3573154712645E-01 -8.4118177033180E-02
17  1.6000000000000E-01  5.7031696140696E-01 -9.2147250753684E-02
18  1.7000000000000E-01  6.0464081204806E-01 -1.0048253077093E-01
19  1.8000000000000E-01  6.3867465370018E-01 -1.0909755972733E-01
20  1.9000000000000E-01  6.7238836157976E-01 -1.1795964992557E-01
21  2.0000000000000E-01  7.0575017119076E-01 -1.2703005718237E-01
22  2.1000000000000E-01  7.3872673633945E-01 -1.3626422279161E-01
23  2.2000000000000E-01  7.7128320510588E-01 -1.4561208136410E-01
24  2.3000000000000E-01  8.0338331327299E-01 -1.5501843161564E-01
25  2.4000000000000E-01  8.3498949455663E-01 -1.6442336650892E-01
26  2.5000000000000E-01  8.6606300682846E-01 -1.7376275852143E-01
27  2.6000000000000E-01  8.9656407337976E-01 -1.8296879522189E-01
28  2.7000000000000E-01  9.2645203813908E-01 -1.9197055979444E-01
29  2.8000000000000E-01  9.5568553363176E-01 -2.0069465066013E-01
30  2.9000000000000E-01  9.8422266035569E-01 -2.0906583391479E-01
31  3.0000000000000E-01  1.0120211761460E+00 -2.1700772193440E-01
32  3.1000000000000E-01  1.0390386940134E+00 -2.2444347119881E-01
33  3.2000000000000E-01  1.0652328868663E+00 -2.3129649215516E-01
34  3.3000000000000E-01  1.0905616974674E+00 -2.3749116378576E-01
35  3.4000000000000E-01  1.1149835519302E+00 -2.4295354546399E-01
36  3.5000000000000E-01  1.1384575750335E+00 -2.4761207867775E-01
37  3.6000000000000E-01  1.1609438056160E+00 -2.5139827127088E-01
38  3.7000000000000E-01  1.1824034103191E+00 -2.5424735700312E-01
39  3.8000000000000E-01  1.2027988939603E+00 -2.5609892345202E-01
40  3.9000000000000E-01  1.2220943048571E+00 -2.5689750157806E-01
41  4.0000000000000E-01  1.2402554334681E+00 -2.5659311064222E-01
42  4.1000000000000E-01  1.2572500027815E+00 -2.5514175260072E-01
43  4.2000000000000E-01  1.2730478489604E+00 -2.5250585060022E-01
44  4.3000000000000E-01  1.2876210908426E+00 -2.4865462675331E-01
45  4.4000000000000E-01  1.3009442869979E+00 -2.4356441498446E-01
46  4.5000000000000E-01  1.3129945791583E+00 -2.3721890539288E-01
47  4.6000000000000E-01  1.3237518209608E+00 -2.2960931727591E-01
48  4.7000000000000E-01  1.3331986910777E+00 -2.2073449868693E-01
49  4.8000000000000E-01  1.3413207899452E+00 -2.1060095115823E-01
50  4.9000000000000E-01  1.3481067194532E+00 -1.9922277899367E-01
51  5.0000000000000E-01  1.3535481451054E+00 -1.8662156332102E-01
52  5.1000000000000E-01  1.3576398403164E+00 -1.7282616188114E-01
53  5.2000000000000E-01  1.3603797126671E+00 -1.5787243631222E-01
54  5.3000000000000E-01  1.3617688120952E+00 -1.4180290945428E-01
55  5.4000000000000E-01  1.3618113211535E+00 -1.2466635594471E-01
56  5.5000000000000E-01  1.3605145276190E+00 -1.0651733008964E-01
57  5.6000000000000E-01  1.3578887798841E+00 -8.7415635674142E-02
58  5.7000000000000E-01  1.3539474257013E+00 -6.7425743006099E-02
59  5.8000000000000E-01  1.3487067349896E+00 -4.6616159069398E-02
60  5.9000000000000E-01  1.3421858075317E+00 -2.5058757185191E-02
61  6.0000000000000E-01  1.3344064665145E+00 -2.8280730383493E-03
62  6.1000000000000E-01  1.3253931389639E+00  1.9999425683077E-02
63  6.2000000000000E-01  1.3151727242241E+00  4.3346088471137E-02
64  6.3000000000000E-01  1.3037744517106E+00  6.7133842198768E-02
65  6.4000000000000E-01  1.2912297292365E+00  9.1284954373561E-02
66  6.5000000000000E-01  1.2775719832654E+00  1.1572279139947E-01
67  6.6000000000000E-01  1.2628364924873E+00  1.4037256380666E-01
68  6.7000000000000E-01  1.2470602161389E+00  1.6516205049499E-01
69  6.8000000000000E-01  1.2302816185060E+00  1.9002229420651E-01
70  6.9000000000000E-01  1.2125404910407E+00  2.1488826069106E-01
71  7.0000000000000E-01  1.1938777735149E+00  2.3969945435709E-01
72  7.1000000000000E-01  1.1743353756028E+00  2.6440048360261E-01
73  7.2000000000000E-01  1.1539560002409E+00  2.8894156949414E-01
74  7.3000000000000E-01  1.1327829700674E+00  3.1327899200128E-01
75  7.4000000000000E-01  1.1108600581717E+00  3.3737546859392E-01
76  7.5000000000000E-01  1.0882313243151E+00  3.6120046066310E-01
77  7.6000000000000E-01  1.0649409576981E+00  3.8473040392727E-01
78  7.7000000000000E-01  1.0410331272564E+00  4.0794885972629E-01
79  7.8000000000000E-01  1.0165518403718E+00  4.3084658487907E-01
80  7.9000000000000E-01  9.9154081077612E-01  4.5342151857695E-01
81  8.0000000000000E-01  9.6604333631990E-01  4.7567868559794E-01
82  8.1000000000000E-01  9.4010218716402E-01  4.9763001594656E-01
83  8.2000000000000E-01  9.1375950483957E-01  5.1929408184315E-01
84  8.3000000000000E-01  8.8705671250673E-01  5.4069575379466E-01
85  8.4000000000000E-01  8.6003443663038E-01  5.6186577827181E-01
86  8.5000000000000E-01  8.3273244017957E-01  5.8284028028145E-01
87  8.6000000000000E-01  8.0518956734986E-01  6.0366019485721E-01
88  8.7000000000000E-01  7.7744369970478E-01  6.2437063218324E-01
89  8.8000000000000E-01  7.4953172353464E-01  6.4502018171220E-01
90  8.9000000000000E-01  7.2148950813962E-01  6.6566016123247E-01
91  9.0000000000000E-01  6.9335189465948E-01  6.8634381737647E-01
92  9.1000000000000E-01  6.6515269499518E-01  7.0712548453753E-01
93  9.2000000000000E-01  6.3692470029920E-01  7.2805970957235E-01
94  9.3000000000000E-01  6.0869969845048E-01  7.4920035001126E-01
95  9.4000000000000E-01  5.8050849987783E-01  7.7059965377204E-01
96  9.5000000000000E-01  5.5238097105205E-01  7.9230732857912E-01
97  9.6000000000000E-01  5.2434607493150E-01  8.1436960942712E-01
98  9.7000000000000E-01  4.9643191761804E-01  8.3682833249665E-01
99  9.8000000000000E-01  4.6866580046012E-01  8.5972002393374E-01
100  9.9000000000000E-01  4.4107427682618E-01  8.8307501184626E-01
101  1.0000000000000E+00  4.1368321276392E-01  9.0691656975262E-01
102  1.0100000000000E+00  3.8651785075820E-01  9.3126009954672E-01
103  1.0200000000000E+00  3.5960287580251E-01  9.5611236182139E-01
104  1.0300000000000E+00  3.3296248300273E-01  9.8147076112858E-01
105  1.0400000000000E+00  3.0662044593952E-01  1.0073226934502E+00
106  1.0500000000000E+00  2.8060018502253E-01  1.0336449628200E+00
107  1.0600000000000E+00  2.5492483507749E-01  1.0604032736749E+00
108  1.0700000000000E+00  2.2961731141321E-01  1.0875518051339E+00
109  1.0800000000000E+00  2.0470037361965E-01  1.1150328730085E+00
110  1.0900000000000E+00  1.8019668634891E-01  1.1427766849458E+00
111  1.1000000000000E+00  1.5612887632821E-01  1.1707011936971E+00
112  1.1100000000000E+00  1.3251958484615E-01  1.1987120531011E+00
113  1.1200000000000E+00  1.0939151494125E-01  1.2267026809675E+00
114  1.1300000000000E+00  8.6767472504289E-02  1.2545544326510E+00
115  1.1400000000000E+00  6.4670400482880E-02  1.2821368887175E+00
116  1.1500000000000E+00  4.3123405349872E-02  1.3093082597232E+00
117  1.1600000000000E+00  2.2149774964787E-02  1.3359159107495E+00
118  1.1700000000000E+00  1.7729869230377E-03  1.3617970079668E+00
119  1.1800000000000E+00 -1.7983293549718E-02  1.3867792891191E+00
120  1.1900000000000E+00 -3.7095227137975E-02  1.4106819594392E+00
121  1.2000000000000E+00 -5.5538826427644E-02  1.4333167140982E+00
122  1.2100000000000E+00 -7.3289995396357E-02  1.4544888878626E+00
123  1.2200000000000E+00 -9.0324583476560E-02  1.4739987321579E+00
124  1.2300000000000E+00 -1.0661845528126E-01  1.4916428192098E+00
125  1.2400000000000E+00 -1.2214757708502E-01  1.5072155723357E+00
126  1.2500000000000E+00 -1.3688812113881E-01  1.5205109207671E+00
127  1.2600000000000E+00 -1.5081658886164E-01  1.5313240765857E+00
128  1.2700000000000E+00 -1.6390995389145E-01  1.5394534304250E+00
129  1.2800000000000E+00 -1.7614582588506E-01  1.5447025614975E+00
130  1.2900000000000E+00 -1.8750263582918E-01  1.5468823562356E+00
131  1.3000000000000E+00 -1.9795984345579E-01  1.5458132283638E+00
132  1.3100000000000E+00 -2.0749816713663E-01  1.5413274314832E+00
133  1.3200000000000E+00 -2.1609983636126E-01  1.5332714532707E+00
134  1.3300000000000E+00 -2.2374886657240E-01  1.5215084780991E+00
135  1.3400000000000E+00 -2.3043135573325E-01  1.5059209022529E+00
136  1.3500000000000E+00 -2.3613580152963E-01  1.4864128829128E+00
137  1.3600000000000E+00 -2.4085343755529E-01  1.4629128986644E+00
138  1.3700000000000E+00 -2.4457858618944E-01  1.4353762954492E+00
139  1.3800000000000E+00 -2.4730902513368E-01  1.4037877875034E+00
140  1.3900000000000E+00 -2.4904636373495E-01  1.3681638779807E+00
141  1.4000000000000E+00 -2.4979642426517E-01  1.3285551584989E+00
142  1.4100000000000E+00 -2.4956962225391E-01  1.2850484408122E+00
143  1.4200000000000E+00 -2.4838133876625E-01  1.2377686670936E+00
144  1.4300000000000E+00 -2.4625227617336E-01  1.1868805378930E+00
145  1.4400000000000E+00 -2.4320878747694E-01  1.1325897886795E+00
146  1.4500000000000E+00 -2.3928316760327E-01  1.0751440369105E+00
147  1.4600000000000E+00 -2.3451389326771E-01  1.0148331117278E+00
148  1.4700000000000E+00 -2.2894579603571E-01  9.5198876771510E-01
149  1.4800000000000E+00 -2.2263015101986E-01  8.8698367238331E-01
150  1.4900000000000E+00 -2.1562466129520E-01  8.2022954440010E-01
151  1.5000000000000E+00 -2.0799331553532E-01  7.5217430576653E-01
152  1.5100000000000E+00 -1.9980609357799E-01  6.8329809621149E-01
153  1.5200000000000E+00 -1.9113849160434E-01  6.1410798192912E-01
154  1.5300000000000E+00 -1.8207083534364E-01  5.4513117333880E-01
155  1.5400000000000E+00 -1.7268734619356E-01  4.7690654777944E-01
156  1.5500000000000E+00 -1.6307492135073E-01  4.0997425283552E-01
157  1.5600000000000E+00 -1.5332158495658E-01  3.4486314421521E-01
158  1.5700000000000E+00 -1.4351456289081E-01  2.8207578881463E-01
159  1.5800000000000E+00 -1.3373792775628E-01  2.2207072646986E-01
160  1.5900000000000E+00 -1.2406975682462E-01  1.6524167081670E-01
161  1.6000000000000E+00 -1.1457881693093E-01  1.1189394801464E-01
162  1.6100000000000E+00 -1.0532037535275E-01  6.2214937941249E-02
163  1.6200000000000E+00 -9.6336850264428E-02  1.6288087172028E-02
164  1.6300000000000E+00 -8.7664319334097E-02 -2.5844909352635E-02
165  1.6400000000000E+00 -7.9335018378316E-02 -6.4160980704994E-02
166  1.6500000000000E+00 -7.1377026775325E-02 -9.8658005318355E-02
167  1.6600000000000E+00 -6.3814258639598E-02 -1.2935448772838E-01
168  1.6700000000000E+00 -5.6666434694935E-02 -1.5628953960116E-01
169  1.6800000000000E+00 -4.9949085694235E-02 -1.7952269582753E-01
170  1.6900000000000E+00 -4.3673588651106E-02 -1.9913355693493E-01
171  1.7000000000000E+00 -3.7847234705861E-02 -2.1522126780052E-01
172  1.7100000000000E+00 -3.2473328154521E-02 -2.2790383527390E-01
173  1.7200000000000E+00 -2.7551315940852E-02 -2.3731728840798E-01
174  1.7300000000000E+00 -2.3076946585775E-02 -2.4361468686720E-01
175  1.7400000000000E+00 -1.9042457302113E-02 -2.4696498418929E-01
176  1.7500000000000E+00 -1.5436787752607E-02 -2.4755175419991E-01
177  1.7600000000000E+00 -1.2245818688764E-02 -2.4557178999776E-01
178  1.7700000000000E+00 -9.4526334756439E-03 -2.4123358617306E-01
179  1.7800000000000E+00 -7.0378002689276E-03 -2.3475571624815E-01
180  1.7900000000000E+00 -4.9796724489926E-03 -2.2636511811891E-01
181  1.8000000000000E+00 -3.2547047266971E-03 -2.1629530132239E-01
182  1.8100000000000E+00 -1.8377821789180E-03 -2.0478449080132E-01
183  1.8200000000000E+00 -7.0255938323523E-04 -1.9207372223827E-01
184  1.8300000000000E+00  1.7819341837149E-04 -1.7840490554173E-01
185  1.8400000000000E+00  8.3224003219909E-04 -1.6401887178338E-01
186  1.8500000000000E+00  1.2875265767039E-03 -1.4915341720011E-01
187  1.8600000000000E+00  1.5718332876519E-03 -1.3404137400565E-01
188  1.8700000000000E+00  1.7124315131447E-03 -1.1890870859239E-01
189  1.8800000000000E+00  1.7357317105378E-03 -1.0397260684135E-01
190  1.8900000000000E+00  1.6670131439887E-03 -8.9439891301863E-02
191  1.9000000000000E+00  1.5300023392654E-03 -7.5504910686616E-02
192  1.9100000000000E+00  1.3450572157379E-03 -6.2341924991295E-02
193  1.9200000000000E+00  1.1302930622578E-03 -5.0108930353309E-02
194  1.9300000000000E+00  9.0468855764992E-04 -3.8959455516584E-02
195  1.9400000000000E+00  6.8440930202586E-04 -2.9028161165110E-02
196  1.9500000000000E+00  4.8278302413187E-04 -2.0430368312792E-02
197  1.9600000000000E+00  3.1008335028769E-04 -1.3260921593816E-02
198  1.9700000000000E+00  1.7343123230200E-04 -7.5957404220185E-03
199  1.9800000000000E+00  7.6304107896807E-05 -3.4700061199229E-03
200  1.9900000000000E+00  1.9935389880301E-05 -9.5782420072686E-04
201  2.0000000000000E+00  5.6465848940294E-07 -2.9248097703041E-05
202  2.0100000000000E+00 -5.4920542030413E-07  2.9045909057378E-05
203  2.0200000000000E+00  3.0875016583882E-07 -1.5466048857161E-05
204  2.03 -0.  0.
205  2.04 -0. -0.
206  2.05  0.  0.
207  2.06  0.  0.
208  2.07  0.  0.
209  2.08  0.  0.
210  2.09  0.  0.
211  2.10  0.  0.
212  2.11  0.  0.
213  2.12  0.  0.
214  2.13  0.  0.
215  2.14  0.  0.
216  2.15  0.  0.
217  2.16  0.  0.
218  2.17  0.  0.
219  2.18  0.  0.
220  2.19  0.  0.
221  2.20  0.  0.
222  2.21  0.  0.
223  2.22  0.  0.
224  2.23  0.  0.
225  2.24  0.  0.
226  2.25  0.  0.
227  2.26  0.  0.
228  2.27  0.  0.
229  2.28  0.  0.
230  2.29  0.  0.
231  2.30  0.  0.
232  2.31  0.  0.
233  2.32  0.  0.
234  2.33  0.  0.
235  2.34  0.  0.
236  2.35  0.  0.
237  2.36  0.  0.
238  2.37  0.  0.
239  2.38  0.  0.
240  2.39  0.  0.
241  2.40  0.  0.
242  2.41  0.  0.
243  2.42  0.  0.
244  2.43  0.  0.
245  2.44  0.  0.
246  2.45  0.  0.
247  2.46  0.  0.
248  2.47  0.  0.
249  2.48  0.  0.
250  2.49  0.  0.
251  2.50  0.  0.
252  2.51  0.  0.
253  2.52  0.  0.
254  2.53  0.  0.
255  2.54  0.  0.
256  2.55  0.  0.
257  2.56  0.  0.
258  2.57  0.  0.
259  2.58  0.  0.
260  2.59  0.  0.
261  2.60  0.  0.
262  2.61  0.  0.
263  2.62  0.  0.
264  2.63  0.  0.
265  2.64  0.  0.
266  2.65  0.  0.
267  2.66  0.  0.
268  2.67  0.  0.
269  2.68  0.  0.
270  2.69  0.  0.
271  2.70  0.  0.
272  2.71  0.  0.
273  2.72  0.  0.
274  2.73  0.  0.
275  2.74  0.  0.
276  2.75  0.  0.
277  2.76  0.  0.
278  2.77  0.  0.
279  2.78  0.  0.
280  2.79  0.  0.
281  2.80  0.  0.
282  2.81  0.  0.
283  2.82  0.  0.
284  2.83  0.  0.
285  2.84  0.  0.
286  2.85  0.  0.
287  2.86  0.  0.
288  2.87  0.  0.
289  2.88  0.  0.
290  2.89  0.  0.
291  2.90  0.  0.
292  2.91  0.  0.
293  2.92  0.  0.
294  2.93  0.  0.
295  2.94  0.  0.
296  2.95  0.  0.
297  2.96  0.  0.
298  2.97  0.  0.
299  2.98  0.  0.
300  2.99  0.  0.
301  3.00  0.  0.
302  3.01  0.  0.
303  3.02  0.  0.
304  3.03  0.  0.
305  3.04  0.  0.
306  3.05  0.  0.
307  3.06  0.  0.
308  3.07  0.  0.
309  3.08  0.  0.
310  3.09  0.  0.
311  3.10  0.  0.
312  3.11  0.  0.
313  3.12  0.  0.
314  3.13  0.  0.
315  3.14  0.  0.
316  3.15  0.  0.
317  3.16  0.  0.
318  3.17  0.  0.
319  3.18  0.  0.
320  3.19  0.  0.
321  3.20  0.  0.
322  3.21  0.  0.
323  3.22  0.  0.
324  3.23  0.  0.
325  3.24  0.  0.
326  3.25  0.  0.
327  3.26  0.  0.
328  3.27  0.  0.
329  3.28  0.  0.
330  3.29  0.  0.
331  3.30  0.  0.
332  3.31  0.  0.
333  3.32  0.  0.
334  3.33  0.  0.
335  3.34  0.  0.
336  3.35  0.  0.
337  3.36  0.  0.
338  3.37  0.  0.
339  3.38  0.  0.
340  3.39  0.  0.
341  3.40  0.  0.
342  3.41  0.  0.
343  3.42  0.  0.
344  3.43  0.  0.
345  3.44  0.  0.
346  3.45  0.  0.
347  3.46  0.  0.
348  3.47  0.  0.
349  3.48  0.  0.
350  3.49  0.  0.
351  3.50  0.  0.
352  3.51  0.  0.
353  3.52  0.  0.
354  3.53  0.  0.
355  3.54  0.  0.
356  3.55  0.  0.
357  3.56  0.  0.
358  3.57  0.  0.
359  3.58  0.  0.
360  3.59  0.  0.
361  3.60  0.  0.
362  3.61  0.  0.
363  3.62  0.  0.
364  3.63  0.  0.
365  3.64  0.  0.
366  3.65  0.  0.
367  3.66  0.  0.
368  3.67  0.  0.
369  3.68  0.  0.
370  3.69  0.  0.
371  3.70  0.  0.
372  3.71  0.  0.
373  3.72  0.  0.
374  3.73  0.  0.
375  3.74  0.  0.
376  3.75  0.  0.
377  3.76  0.  0.
378  3.77  0.  0.
379  3.78  0.  0.
380  3.79  0.  0.
381  3.80  0.  0.
382  3.81  0.  0.
383  3.82  0.  0.
384  3.83  0.  0.
385  3.84  0.  0.
386  3.85  0.  0.
387  3.86  0.  0.
388  3.87  0.  0.
389  3.88  0.  0.
390  3.89  0.  0.
391  3.90  0.  0.
392  3.91  0.  0.
393  3.92  0.  0.
394  3.93  0.  0.
395  3.94  0.  0.
396  3.95  0.  0.
397  3.96  0.  0.
398  3.97  0.  0.
399  3.98  0.  0.
400  3.99  0.  0.
401  4.00  0.  0.
402  4.01  0.  0.
403  4.02  0.  0.
404  4.03  0.  0.
405  4.04  0.  0.
406  4.05  0.  0.
407  4.06  0.  0.
408  4.07  0.  0.
409  4.08  0.  0.
410  4.09  0.  0.
411  4.10  0.  0.
412  4.11  0.  0.
413  4.12  0.  0.
414  4.13  0.  0.
415  4.14  0.  0.
416  4.15  0.  0.
417  4.16  0.  0.
418  4.17  0.  0.
419  4.18  0.  0.
420  4.19  0.  0.
421  4.20  0.  0.
422  4.21  0.  0.
423  4.22  0.  0.
424  4.23  0.  0.
425  4.24  0.  0.
426  4.25  0.  0.
427  4.26  0.  0.
428  4.27  0.  0.
429  4.28  0.  0.
430  4.29  0.  0.
431  4.30  0.  0.
432  4.31  0.  0.
433  4.32  0.  0.
434  4.33  0.  0.
435  4.34  0.  0.
436  4.35  0.  0.
437  4.36  0.  0.
438  4.37  0.  0.
439  4.38  0.  0.
440  4.39  0.  0.
441  4.40  0.  0.
442  4.41  0.  0.
443  4.42  0.  0.
444  4.43  0.  0.
445  4.44  0.  0.
446  4.45  0.  0.
447  4.46  0.  0.
448  4.47  0.  0.
449  4.48  0.  0.
450  4.49  0.  0.
451  4.50  0.  0.
452  4.51  0.  0.
453  4.52  0.  0.
454  4.53  0.  0.
455  4.54  0.  0.
456  4.55  0.  0.
457  4.56  0.  0.
458  4.57  0.  0.
459  4.58  0.  0.
460  4.59  0.  0.
461  4.60  0.  0.
462  4.61  0.  0.
463  4.62  0.  0.
464  4.63  0.  0.
465  4.64  0.  0.
466  4.65  0.  0.
467  4.66  0.  0.
468  4.67  0.  0.
469  4.68  0.  0.
470  4.69  0.  0.
471  4.70  0.  0.
472  4.71  0.  0.
473  4.72  0.  0.
474  4.73  0.  0.
475  4.74  0.  0.
476  4.75  0.  0.
477  4.76  0.  0.
478  4.77  0.  0.
479  4.78  0.  0.
480  4.79  0.  0.
481  4.80  0.  0.
482  4.81  0.  0.
483  4.82  0.  0.
484  4.83  0.  0.
485  4.84  0.  0.
486  4.85  0.  0.
487  4.86  0.  0.
488  4.87  0.  0.
489  4.88  0.  0.
490  4.89  0.  0.
491  4.90  0.  0.
492  4.91  0.  0.
493  4.92  0.  0.
494  4.93  0.  0.
495  4.94  0.  0.
496  4.95  0.  0.
497  4.96  0.  0.
498  4.97  0.  0.
499  4.98  0.  0.
500  4.99  0.  0.
501  5.00  0.  0.
502  5.01  0.  0.
503  5.02  0.  0.
504  5.03  0.  0.
505  5.04  0.  0.
506  5.05  0.  0.
507  5.06  0.  0.
508  5.07  0.  0.
509  5.08  0.  0.
510  5.09  0.  0.
511  5.10  0.  0.
512  5.11  0.  0.
513  5.12  0.  0.
514  5.13  0.  0.
515  5.14  0.  0.
516  5.15  0.  0.
517  5.16  0.  0.
518  5.17  0.  0.
519  5.18  0.  0.
520  5.19  0.  0.
521  5.20  0.  0.
522  5.21  0.  0.
523  5.22  0.  0.
524  5.23  0.  0.
525  5.24  0.  0.
526  5.25  0.  0.
527  5.26  0.  0.
528  5.27  0.  0.
529  5.28  0.  0.
530  5.29  0.  0.
531  5.30  0.  0.
532  5.31  0.  0.
533  5.32  0.  0.
534  5.33  0.  0.
535  5.34  0.  0.
536  5.35  0.  0.
537  5.36  0.  0.
538  5.37  0.  0.
539  5.38  0.  0.
540  5.39  0.  0.
541  5.40  0.  0.
542  5.41  0.  0.
543  5.42  0.  0.
544  5.43  0.  0.
545  5.44  0.  0.
546  5.45  0.  0.
547  5.46  0.  0.
548  5.47  0.  0.
549  5.48  0.  0.
550  5.49  0.  0.
551  5.50  0.  0.
552  5.51  0.  0.
553  5.52  0.  0.
554  5.53  0.  0.
555  5.54  0.  0.
556  5.55  0.  0.
557  5.56  0.  0.
558  5.57  0.  0.
559  5.58  0.  0.
560  5.59  0.  0.
561  5.60  0.  0.
562  5.61  0.  0.
563  5.62  0.  0.
564  5.63  0.  0.
565  5.64  0.  0.
566  5.65  0.  0.
567  5.66  0.  0.
568  5.67  0.  0.
569  5.68  0.  0.
570  5.69  0.  0.
571  5.70  0.  0.
572  5.71  0.  0.
573  5.72  0.  0.
574  5.73  0.  0.
575  5.74  0.  0.
576  5.75  0.  0.
577  5.76  0.  0.
578  5.77  0.  0.
579  5.78  0.  0.
580  5.79  0.  0.
581  5.80  0.  0.
582  5.81  0.  0.
583  5.82  0.  0.
584  5.83  0.  0.
585  5.84  0.  0.
586  5.85  0.  0.
587  5.86  0.  0.
588  5.87  0.  0.
589  5.88  0.  0.
590  5.89  0.  0.
591  5.90  0.  0.
592  5.91  0.  0.
593  5.92  0.  0.
594  5.93  0.  0.
595  5.94  0.  0.
596  5.95  0.  0.
597  5.96  0.  0.
598  5.97  0.  0.
599  5.98  0.  0.
600  5.99  0.  0.
1                         4.8084796581422E+00  7.8354644215841E-01
1  0.0000000000000E+00  8.6871453225390E-09 -3.5321604106853E-08
2  1.0000000000000E-02  1.0808965678121E-03 -1.1174894833609E-03
3  2.0000000000000E-02  4.3110475247116E-03 -4.4258581762378E-03
4  3.0000000000000E-02  9.6530881326700E-03 -9.7938186596353E-03
5  4.0000000000000E-02  1.7045577028320E-02 -1.7005910519561E-02
6  5.0000000000000E-02  2.6404228139672E-02 -2.5767455568610E-02
7  6.0000000000000E-02  3.7623599967466E-02 -3.5711351227420E-02
8  7.0000000000000E-02  5.0579207672639E-02 -4.6406561564763E-02
9  8.0000000000000E-02  6.5130014724238E-02 -5.7368130173436E-02
10  9.0000000000000E-02  8.1121253033333E-02 -6.8068507225771E-02
11  1.0000000000000E-01  9.8387513684576E-02 -7.7949955342545E-02
12  1.1000000000000E-01  1.1675604471447E-01 -8.6437775878005E-02
13  1.2000000000000E-01  1.3605018798890E-01 -9.2954079337077E-02
14  1.3000000000000E-01  1.5609288419166E-01 -9.6931811264084E-02
15  1.4000000000000E-01  1.7671017331441E-01 -9.7828738333972E-02
16  1.5000000000000E-01  1.9773461787243E-01 -9.5141098684527E-02
17  1.6000000000000E-01  2.1900857736780E-01 -8.8416625781913E-02
18  1.7000000000000E-01  2.4038726526066E-01 -7.7266666228887E-02
19  1.8000000000000E-01  2.6174152384146E-01 -6.1377128704858E-02
20  1.9000000000000E-01  2.8296025784576E-01 -4.0518023360539E-02
21  2.0000000000000E-01  3.0395247431537E-01 -1.4551378060274E-02
22  2.1000000000000E-01  3.2464888395985E-01  1.6562650640116E-02
23  2.2000000000000E-01  3.4500302796053E-01  5.2761618576216E-02
24  2.3000000000000E-01  3.6499190362023E-01  9.3878695455496E-02
25  2.4000000000000E-01  3.8461607231039E-01  1.3964269421326E-01
26  2.5000000000000E-01  4.0389924360984E-01  1.8968025325623E-01
27  2.6000000000000E-01  4.2288734016056E-01  2.4352015336181E-01
28  2.7000000000000E-01  4.4164705837770E-01  3.0059970782606E-01
29  2.8000000000000E-01  4.6026395053382E-01  3.6027312219792E-01
30  2.9000000000000E-01  4.7884006368485E-01  4.2182167943838E-01
31  3.0000000000000E-01  4.9749118021890E-01  4.8446556840850E-01
32  3.1000000000000E-01  5.1634371330103E-01  5.4737713898169E-01
33  3.2000000000000E-01  5.3553131798460E-01  6.0969533649545E-01
34  3.3000000000000E-01  5.5519128510857E-01  6.7054104233333E-01
35  3.4000000000000E-01  5.7546079016681E-01  7.2903302670092E-01
36  3.5000000000000E-01  5.9647307301093E-01  7.8430420457344E-01
37  3.6000000000000E-01  6.1835362645013E-01  8.3551787668389E-01
38  3.7000000000000E-01  6.4121647248428E-01  8.8188363451360E-01
39  3.8000000000000E-01  6.6516060402625E-01  9.2267261164399E-01
40  3.9000000000000E-01  6.9026666753863E-01  9.5723177351398E-01
41  4.0000000000000E-01  7.1659395806582E-01  9.8499695346019E-01
42  4.1000000000000E-01  7.4417779274684E-01  1.0055043646386E+00
43  4.2000000000000E-01  7.7302732214223E-01  1.0184003446588E+00
44  4.3000000000000E-01  8.0312383071828E-01  1.0234491220220E+00
45  4.4000000000000E-01  8.3441956875033E-01  1.0205384301501E+00
46  4.5000000000000E-01  8.6683714789978E-01  1.0096828352557E+00
47  4.6000000000000E-01  9.0026952197418E-01  9.9102468776207E-01
48  4.7000000000000E-01  9.3458056309900E-01  9.6483265263685E-01
49  4.8000000000000E-01  9.6960623192723E-01  9.3149782096221E-01
50  4.9000000000000E-01  1.0051563288125E+00  8.9152745244288E-01
51  5.0000000000000E-01  1.0410168012982E+00  8.4553644542346E-01
52  5.1000000000000E-01  1.0769525720572E+00  7.9423667643531E-01
53  5.2000000000000E-01  1.1127108407723E+00  7.3842439442280E-01
54  5.3000000000000E-01  1.1480248035927E+00  6.7896589475019E-01
55  5.4000000000000E-01  1.1826177249324E+00  6.1678173405611E-01
56  5.5000000000000E-01  1.2162072886740E+00  5.5282977826681E-01
57  5.6000000000000E-01  1.2485101494713E+00  4.8808740194983E-01
58  5.7000000000000E-01  1.2792465999360E+00  4.2353317713150E-01
59  5.8000000000000E-01  1.3081452661640E+00  3.6012840327048E-01
60  5.9000000000000E-01  1.3349477423829E+00  2.9879883694823E-01
61  6.0000000000000E-01  1.3594130755334E+00  2.4041697980623E-01
62  6.1000000000000E-01  1.3813220123509E+00  1.8578527625994E-01
63  6.2000000000000E-01  1.4004809249759E+00  1.3562055861595E-01
64  6.3000000000000E-01  1.4167253362390E+00  9.0540056609259E-02
65  6.4000000000000E-01  1.4299229724625E+00  5.1049261393395E-02
66  6.5000000000000E-01  1.4399762797814E+00  1.7531901111991E-02
67  6.6000000000000E-01  1.4468243494652E+00 -9.7577530687542E-03
68  6.7000000000000E-01  1.4504442083625E+00 -3.0700074498782E-02
69  6.8000000000000E-01  1.4508514421845E+00 -4.5312632977352E-02
70  6.9000000000000E-01  1.4481001316928E+00 -5.3750031719292E-02
71  7.0000000000000E-01  1.4422820947222E+00 -5.6301001892944E-02
72  7.1000000000000E-01  1.4335254401149E+00 -5.3382780286961E-02
73  7.2000000000000E-01  1.4219924528180E+00 -4.5532848776320E-02
74  7.3000000000000E-01  1.4078768423451E+00 -3.3398166458274E-02
75  7.4000000000000E-01  1.3914003992832E+00 -1.7722075588483E-02
76  7.5000000000000E-01  1.3728091162871E+00  6.7089021282516E-04
77  7.6000000000000E-01  1.3523688408109E+00  2.0892023539232E-02
78  7.7000000000000E-01  1.3303605364773E+00  4.2006975882752E-02
79  7.8000000000000E-01  1.3070752382611E+00  6.3055461549119E-02
80  7.9000000000000E-01  1.2828087934157E+00  8.3071761961960E-02
81  8.0000000000000E-01  1.2578564851371E+00  1.0110563936564E-01
82  8.1000000000000E-01  1.2325076392359E+00  1.1624325606219E-01
83  8.2000000000000E-01  1.2070403154896E+00  1.2762769004288E-01
84  8.3000000000000E-01  1.1817161848323E+00  1.3447864038000E-01
85  8.4000000000000E-01  1.1567756910913E+00  1.3611092606524E-01
86  8.5000000000000E-01  1.1324335916391E+00  1.3195140000051E-01
87  8.6000000000000E-01  1.1088749651459E+00  1.2155392530355E-01
88  8.7000000000000E-01  1.0862517667037E+00  1.0461209357489E-01
89  8.8000000000000E-01  1.0646800010720E+00  8.0969403737864E-02
90  8.9000000000000E-01  1.0442375738438E+00  5.0626664834770E-02
91  9.0000000000000E-01  1.0249628681326E+00  1.3746435946554E-02
92  9.1000000000000E-01  1.0068540811647E+00 -2.9345629696041E-02
93  9.2000000000000E-01  9.8986934116363E-01 -7.8162612304829E-02
94  9.3000000000000E-01  9.7392761039704E-01 -1.3206134160660E-01
95  9.4000000000000E-01  9.5891036548329E-01 -1.9025055806640E-01
96  9.5000000000000E-01  9.4466403131586E-01 -2.5180211597587E-01
97  9.6000000000000E-01  9.3100313052462E-01 -3.1566506644160E-01
98  9.7000000000000E-01  9.1771409653657E-01 -3.8068240202411E-01
99  9.8000000000000E-01  9.0455968529155E-01 -4.4561019198548E-01
100  9.9000000000000E-01  8.9128390875975E-01 -5.0913878881216E-01
101  1.0000000000000E+00  8.7761740283636E-01 -5.6991574386023E-01
102  1.0100000000000E+00  8.6328313315471E-01 -6.2657003343570E-01
103  1.0200000000000E+00  8.4800233505742E-01 -6.7773716716416E-01
104  1.0300000000000E+00  8.3150057853701E-01 -7.2208472869787E-01
105  1.0400000000000E+00  8.1351384551777E-01 -7.5833788511746E-01
106  1.0500000000000E+00  7.9379450548937E-01 -7.8530439617747E-01
107  1.0600000000000E+00  7.7211707624284E-01 -8.0189865791178E-01
108  1.0700000000000E+00  7.4828365932186E-01 -8.0716432714045E-01
109  1.0800000000000E+00  7.2212894472771E-01 -8.0029509386314E-01
110  1.0900000000000E+00  6.9352468633739E-01 -7.8065319711175E-01
111  1.1000000000000E+00  6.6238355830409E-01 -7.4778531613070E-01
112  1.1100000000000E+00  6.2866231321102E-01 -7.0143551195543E-01
113  1.1200000000000E+00  5.9236417484780E-01 -6.4155494418465E-01
114  1.1300000000000E+00  5.5354041181432E-01 -5.6830814252173E-01
115  1.1400000000000E+00  5.1229105268821E-01 -4.8207567233469E-01
116  1.1500000000000E+00  4.6876471870548E-01 -3.8345309595340E-01
117  1.1600000000000E+00  4.2315756581435E-01 -2.7324619676035E-01
118  1.1700000000000E+00  3.7571134396015E-01 -1.5246249884395E-01
119  1.1800000000000E+00  3.2671059757457E-01 -2.2299181208009E-02
120  1.1900000000000E+00  2.7647904687670E-01  1.1587245017976E-01
121  1.2000000000000E+00  2.2537520470851E-01  2.6052570700955E-01
122  1.2100000000000E+00  1.7378729777641E-01  4.1000019612501E-01
123  1.2200000000000E+00  1.2212757415328E-01  5.6252609251078E-01
124  1.2300000000000E+00  7.0826090520291E-02  7.1625062229458E-01
125  1.2400000000000E+00  2.0324082544585E-02  8.6926632911950E-01
126  1.2500000000000E+00 -2.8932970019371E-02  1.0196406630609E+00
127  1.2600000000000E+00 -7.6502465743137E-02  1.1654464052638E+00
128  1.2700000000000E+00 -1.2195186957738E-01  1.3047924238398E+00
129  1.2800000000000E+00 -1.6486584269815E-01  1.4358542476074E+00
130  1.2900000000000E+00 -2.0485319055390E-01  1.5569039443375E+00
131  1.3000000000000E+00 -2.4155350792028E-01  1.6663387989542E+00
132  1.3100000000000E+00 -2.7464340436935E-01  1.7627083048509E+00
133  1.3200000000000E+00 -3.0384220019986E-01  1.8447390074746E+00
134  1.3300000000000E+00 -3.2891699144292E-01  1.9113567731582E+00