Ce    ONCVPSP-4.0.1  r_core=   2.00895   1.60047   1.90366   1.60047
58.0000     12.0000      230112    zatom,zion,pspd
8      11   3     4   600     0    pspcod,pspxc,lmax,lloc,mmax,r2well
5.99000000  4.00000000  0.00000000    rchrg fchrg qchrg
2     2     2     2     0    nproj
1     1           extension_switch
0                         6.6107783893470E+00  7.6343243185796E-01
1  0.0000000000000E+00  1.0781492365552E-10 -2.9975200099841E-10
2  1.0000000000000E-02  3.0158500940736E-02 -4.5460086403867E-03
3  2.0000000000000E-02  6.0319541851478E-02 -9.1061783773045E-03
4  3.0000000000000E-02  9.0485427916676E-02 -1.3694238702068E-02
5  4.0000000000000E-02  1.2065799736970E-01 -1.8323062129053E-02
6  5.0000000000000E-02  1.5083839453972E-01 -2.3004251213846E-02
7  6.0000000000000E-02  1.8102685064839E-01 -2.7747743964369E-02
8  7.0000000000000E-02  2.1122247481169E-01 -3.2561443420152E-02
9  8.0000000000000E-02  2.4142305759476E-01 -3.7450876875207E-02
10  9.0000000000000E-02  2.7162488933448E-01 -4.2418889851342E-02
11  1.0000000000000E-01  3.0182259528868E-01 -4.7465379495980E-02
12  1.1000000000000E-01  3.3200898949234E-01 -5.2587071585733E-02
13  1.2000000000000E-01  3.6217494900316E-01 -5.7777344770372E-02
14  1.3000000000000E-01  3.9230931000244E-01 -6.3026105097099E-02
15  1.4000000000000E-01  4.2239878698497E-01 -6.8319713219118E-02
16  1.5000000000000E-01  4.5242791602609E-01 -7.3640966022564E-02
17  1.6000000000000E-01  4.8237902285749E-01 -7.8969133709519E-02
18  1.7000000000000E-01  5.1223221621857E-01 -8.4280052660209E-02
19  1.8000000000000E-01  5.4196540667980E-01 -8.9546273672486E-02
20  1.9000000000000E-01  5.7155435086149E-01 -9.4737264450168E-02
21  2.0000000000000E-01  6.0097272069863E-01 -9.9819664491764E-02
22  2.1000000000000E-01  6.3019219713246E-01 -1.0475758982639E-01
23  2.2000000000000E-01  6.5918258734569E-01 -1.0951298436250E-01
24  2.3000000000000E-01  6.8791196440274E-01 -1.1404601396556E-01
25  2.4000000000000E-01  7.1634682791262E-01 -1.1831549877097E-01
26  2.5000000000000E-01  7.4445228410213E-01 -1.2227937867584E-01
27  2.6000000000000E-01  7.7219224347360E-01 -1.2589520644485E-01
28  2.7000000000000E-01  7.9952963402678E-01 -1.2912066241786E-01
29  2.8000000000000E-01  8.2642662785112E-01 -1.3191408442599E-01
30  2.9000000000000E-01  8.5284487874340E-01 -1.3423500621394E-01
31  3.0000000000000E-01  8.7874576838031E-01 -1.3604469743437E-01
32  3.1000000000000E-01  9.0409065847500E-01 -1.3730669812751E-01
33  3.2000000000000E-01  9.2884114627429E-01 -1.3798734053057E-01
34  3.3000000000000E-01  9.5295932070860E-01 -1.3805625107754E-01
35  3.4000000000000E-01  9.7640801649128E-01 -1.3748682555197E-01
36  3.5000000000000E-01  9.9915106347740E-01 -1.3625667054390E-01
37  3.6000000000000E-01  1.0211535286352E+00 -1.3434800463596E-01
38  3.7000000000000E-01  1.0423819480554E+00 -1.3174801310071E-01
39  3.8000000000000E-01  1.0628045465230E+00 -1.2844915032943E-01
40  3.9000000000000E-01  1.0823914423052E+00 -1.2444938472761E-01
41  4.0000000000000E-01  1.1011148349628E+00 -1.1975238139955E-01
42  4.1000000000000E-01  1.1189491741701E+00 -1.1436761859871E-01
43  4.2000000000000E-01  1.1358713077324E+00 -1.0831043463476E-01
44  4.3000000000000E-01  1.1518606072115E+00 -1.0160200269611E-01
45  4.4000000000000E-01  1.1668990698132E+00 -9.4269231859809E-02
46  4.5000000000000E-01  1.1809713954472E+00 -8.6344593410415E-02
47  4.6000000000000E-01  1.1940650381423E+00 -7.7865872467525E-02
48  4.7000000000000E-01  1.2061702312835E+00 -6.8875845817128E-02
49  4.8000000000000E-01  1.2172799864260E+00 -5.9421887746956E-02
50  4.9000000000000E-01  1.2273900657373E+00 -4.9555506587685E-02
51  5.0000000000000E-01  1.2364989284146E+00 -3.9331815553051E-02
52  5.1000000000000E-01  1.2446076517199E+00 -2.8808942339188E-02
53  5.2000000000000E-01  1.2517198275628E+00 -1.8047382778716E-02
54  5.3000000000000E-01  1.2578414358444E+00 -7.1093046374817E-03
55  5.4000000000000E-01  1.2629806960442E+00  3.9421916195378E-03
56  5.5000000000000E-01  1.2671478987866E+00  1.5043847588638E-02
57  5.6000000000000E-01  1.2703552193608E+00  2.6133049104334E-02
58  5.7000000000000E-01  1.2726165153867E+00  3.7148647195968E-02
59  5.8000000000000E-01  1.2739471110102E+00  4.8031788747119E-02
60  5.9000000000000E-01  1.2743635701828E+00  5.8726747434943E-02
61  6.0000000000000E-01  1.2738834617185E+00  6.9181745279107E-02
62  6.1000000000000E-01  1.2725251189360E+00  7.9349754986936E-02
63  6.2000000000000E-01  1.2703073967705E+00  8.9189273245824E-02
64  6.3000000000000E-01  1.2672494292917E+00  9.8665055188494E-02
65  6.4000000000000E-01  1.2633703905777E+00  1.0774880044260E-01
66  6.5000000000000E-01  1.2586892618771E+00  1.1641978147360E-01
67  6.6000000000000E-01  1.2532246079397E+00  1.2466540533720E-01
68  6.7000000000000E-01  1.2469943653120E+00  1.3248170047359E-01
69  6.8000000000000E-01  1.2400156452740E+00  1.3987372079438E-01
70  6.9000000000000E-01  1.2323045539463E+00  1.4685586003206E-01
71  7.0000000000000E-01  1.2238760319150E+00  1.5345207013310E-01
72  7.1000000000000E-01  1.2147437155154E+00  1.5969597837194E-01
73  7.2000000000000E-01  1.2049198216780E+00  1.6563089883734E-01
74  7.3000000000000E-01  1.1944150579852E+00  1.7130973498344E-01
75  7.4000000000000E-01  1.1832385593031E+00  1.7679477103577E-01
76  7.5000000000000E-01  1.1713978520590E+00  1.8215735118678E-01
77  7.6000000000000E-01  1.1588988469177E+00  1.8747744669274E-01
78  7.7000000000000E-01  1.1457458602898E+00  1.9284311218299E-01
79  7.8000000000000E-01  1.1319416647691E+00  1.9834983369951E-01
80  7.9000000000000E-01  1.1174875682630E+00  2.0409977218734E-01
81  8.0000000000000E-01  1.1023835212417E+00  2.1020090733937E-01
82  8.1000000000000E-01  1.0866282512014E+00  2.1676608785147E-01
83  8.2000000000000E-01  1.0702194231103E+00  2.2391199525031E-01
84  8.3000000000000E-01  1.0531538242936E+00  2.3175802950522E-01
85  8.4000000000000E-01  1.0354275719179E+00  2.4042512561346E-01
86  8.5000000000000E-01  1.0170363409540E+00  2.5003451124519E-01
87  8.6000000000000E-01  9.9797561024071E-01  2.6070641633748E-01
88  8.7000000000000E-01  9.7824092404455E-01  2.7255874622747E-01
89  8.8000000000000E-01  9.5782816630188E-01  2.8570573050377E-01
90  8.9000000000000E-01  9.3673384456290E-01  3.0025656022501E-01
91  9.0000000000000E-01  9.1495538051462E-01  3.1631402649862E-01
92  9.1000000000000E-01  8.9249140385655E-01  3.3397317362720E-01
93  9.2000000000000E-01  8.6934204623400E-01  3.5331998011048E-01
94  9.3000000000000E-01  8.4550923190193E-01  3.7443008073603E-01
95  9.4000000000000E-01  8.2099696179769E-01  3.9736754280266E-01
96  9.5000000000000E-01  7.9581158774371E-01  4.2218370919652E-01
97  9.6000000000000E-01  7.6996207357962E-01  4.4891612058662E-01
98  9.7000000000000E-01  7.4346024013844E-01  4.7758752842691E-01
99  9.8000000000000E-01  7.1632099112932E-01  5.0820500975351E-01
100  9.9000000000000E-01  6.8856251717010E-01  5.4075919395661E-01
101  1.0000000000000E+00  6.6020647542277E-01  5.7522361079368E-01
102  1.0100000000000E+00  6.3127814252148E-01  6.1155416790921E-01
103  1.0200000000000E+00  6.0180653874323E-01  6.4968876504212E-01
104  1.0300000000000E+00  5.7182452165158E-01  6.8954705095283E-01
105  1.0400000000000E+00  5.4136884774028E-01  7.3103032789926E-01
106  1.0500000000000E+00  5.1048020091250E-01  7.7402160724772E-01
107  1.0600000000000E+00  4.7920318694870E-01  8.1838581853734E-01
108  1.0700000000000E+00  4.4758629343624E-01  8.6397017304021E-01
109  1.0800000000000E+00  4.1568181495535E-01  9.1060468158406E-01
110  1.0900000000000E+00  3.8354574363055E-01  9.5810282515243E-01
111  1.1000000000000E+00  3.5123762546449E-01  1.0062623755533E+00
112  1.1100000000000E+00  3.1882038316468E-01  1.0548663622732E+00
113  1.1200000000000E+00  2.8636010645115E-01  1.1036841805143E+00
114  1.1300000000000E+00  2.5392581109093E-01  1.1524728343632E+00
115  1.1400000000000E+00  2.2158916813931E-01  1.2009783080711E+00
116  1.1500000000000E+00  1.8942420507732E-01  1.2489370575361E+00
117  1.1600000000000E+00  1.5750698071583E-01  1.2960776132924E+00
118  1.1700000000000E+00  1.2591523588896E-01  1.3421222856100E+00
119  1.1800000000000E+00  9.4728022081490E-02  1.3867889617157E+00
120  1.1900000000000E+00  6.4025310226413E-02  1.4297929846468E+00
121  1.2000000000000E+00  3.3887581970574E-02  1.4708491028459E+00
122  1.2100000000000E+00  4.3954057388375E-03  1.5096734792986E+00
123  1.2200000000000E+00 -2.4371000067255E-02  1.5459857487873E+00
124  1.2300000000000E+00 -5.2332214419137E-02  1.5795111116849E+00
125  1.2400000000000E+00 -7.9410069282574E-02  1.6099824526264E+00
126  1.2500000000000E+00 -1.0552811129161E-01  1.6371424723586E+00
127  1.2600000000000E+00 -1.3061206732611E-01  1.6607458210622E+00
128  1.2700000000000E+00 -1.5459031192152E-01  1.6805612214547E+00
129  1.2800000000000E+00 -1.7739433451820E-01  1.6963735699835E+00
130  1.2900000000000E+00 -1.9895920463082E-01  1.7079860043997E+00
131  1.3000000000000E+00 -2.1922403307929E-01  1.7152219259276E+00
132  1.3100000000000E+00 -2.3813242746290E-01  1.7179269640945E+00
133  1.3200000000000E+00 -2.5563294007168E-01  1.7159708720337E+00
134  1.3300000000000E+00 -2.7167950640397E-01  1.7092493396859E+00
135  1.3400000000000E+00 -2.8623187238799E-01  1.6976857117849E+00
136  1.3500000000000E+00 -2.9925600827942E-01  1.6812325967755E+00
137  1.3600000000000E+00 -3.1072450701681E-01  1.6598733518664E+00
138  1.3700000000000E+00 -3.2061696455085E-01  1.6336234282125E+00
139  1.3800000000000E+00 -3.2892033931534E-01  1.6025315587473E+00
140  1.3900000000000E+00 -3.3562928756350E-01  1.5666807693820E+00
141  1.4000000000000E+00 -3.4074647074945E-01  1.5261891921714E+00
142  1.4100000000000E+00 -3.4428283046994E-01  1.4812106565149E+00
143  1.4200000000000E+00 -3.4625782569910E-01  1.4319350315610E+00
144  1.4300000000000E+00 -3.4669962613008E-01  1.3785882896261E+00
145  1.4400000000000E+00 -3.4564525437078E-01  1.3214322566058E+00
146  1.4500000000000E+00 -3.4314066853164E-01  1.2607640110594E+00
147  1.4600000000000E+00 -3.3924077535141E-01  1.1969148887523E+00
148  1.4700000000000E+00 -3.3400936245734E-01  1.1302490440374E+00
149  1.4800000000000E+00 -3.2751893661186E-01  1.0611615134156E+00
150  1.4900000000000E+00 -3.1985045286128E-01  9.9007571994720E-01
151  1.5000000000000E+00 -3.1109291735663E-01  9.1744034983184E-01
152  1.5100000000000E+00 -3.0134284425679E-01  8.4372552442110E-01
153  1.5200000000000E+00 -2.9070354453723E-01  7.6941818211959E-01
154  1.5300000000000E+00 -2.7928422168864E-01  6.9501657499125E-01
155  1.5400000000000E+00 -2.6719884621379E-01  6.2102377445773E-01
156  1.5500000000000E+00 -2.5456477747858E-01  5.4794006912037E-01
157  1.5600000000000E+00 -2.4150109784503E-01  4.7625412545581E-01
158  1.5700000000000E+00 -2.2812662009339E-01  4.0643276886056E-01
159  1.5800000000000E+00 -2.1455752435592E-01  3.3890922474634E-01
160  1.5900000000000E+00 -2.0090457815924E-01  2.7406965659875E-01
161  1.6000000000000E+00 -1.8726989790310E-01  2.1223787576866E-01
162  1.6100000000000E+00 -1.7374357404642E-01  1.5366039324080E-01
163  1.6200000000000E+00 -1.6040560862241E-01  9.8524916903468E-02
164  1.6300000000000E+00 -1.4733029568658E-01  4.6991146938983E-02
165  1.6400000000000E+00 -1.3458641520190E-01 -8.0655188694819E-04
166  1.6500000000000E+00 -1.2223686501591E-01 -4.4760208300289E-02
167  1.6600000000000E+00 -1.1033835695273E-01 -8.4789015332282E-02
168  1.6700000000000E+00 -9.8941168216599E-02 -1.2083987795236E-01
169  1.6800000000000E+00 -8.8088951543604E-02 -1.5288772274548E-01
170  1.6900000000000E+00 -7.7818605492379E-02 -1.8093556659224E-01
171  1.7000000000000E+00 -6.8160205838912E-02 -2.0501434261339E-01
172  1.7100000000000E+00 -5.9136998434446E-02 -2.2518248402201E-01
173  1.7200000000000E+00 -5.0765453331570E-02 -2.4152526859196E-01
174  1.7300000000000E+00 -4.3055379378351E-02 -2.5415392879081E-01
175  1.7400000000000E+00 -3.6010097900940E-02 -2.6320453481557E-01
176  1.7500000000000E+00 -2.9626673558160E-02 -2.6883665974234E-01
177  1.7600000000000E+00 -2.3896199880823E-02 -2.7123183817606E-01
178  1.7700000000000E+00 -1.8804136477856E-02 -2.7059183175988E-01
179  1.7800000000000E+00 -1.4330694437794E-02 -2.6713671651966E-01
180  1.7900000000000E+00 -1.0451265937373E-02 -2.6110280899211E-01
181  1.8000000000000E+00 -7.1368937004001E-03 -2.5274044934677E-01
182  1.8100000000000E+00 -4.3547755178696E-03 -2.4231166133858E-01
183  1.8200000000000E+00 -2.0687987459394E-03 -2.3008770991858E-01
184  1.8300000000000E+00 -2.4009939795150E-04 -2.1634657840453E-01
185  1.8400000000000E+00  1.1723598014336E-03 -2.0137038798288E-01
186  1.8500000000000E+00  2.2111981872286E-03 -1.8544278278933E-01
187  1.8600000000000E+00  2.9200186688989E-03 -1.6884630423300E-01
188  1.8700000000000E+00  3.3428080778938E-03 -1.5185977864867E-01
189  1.8800000000000E+00  3.5233422641618E-03 -1.3475574183824E-01
190  1.8900000000000E+00  3.5045951242477E-03 -1.1779790885029E-01
191  1.9000000000000E+00  3.3282024292399E-03 -1.0123881120044E-01
192  1.9100000000000E+00  3.0337137591330E-03 -8.5317026581671E-02
193  1.9200000000000E+00  2.6565220594036E-03 -7.0251361741532E-02
194  1.9300000000000E+00  2.2301394371345E-03 -5.6245049155984E-02
195  1.9400000000000E+00  1.7867910544212E-03 -4.3486348593157E-02
196  1.9500000000000E+00  1.3545584766004E-03 -3.2141369489298E-02
197  1.9600000000000E+00  9.5732998708180E-04 -2.2353227329176E-02
198  1.9700000000000E+00  6.1443774324677E-04 -1.4240617503948E-02
199  1.9800000000000E+00  3.4051665206109E-04 -7.8997855104517E-03
200  1.9900000000000E+00  1.4400226387213E-04 -3.3711772460147E-03
201  2.0000000000000E+00  3.3157869602822E-05 -7.9063948062148E-04
202  2.0100000000000E+00 -1.1945218976396E-06  2.8952470684966E-05
203  2.0200000000000E+00 -4.7463560058367E-07  1.1630411007056E-05
204  2.03  0. -0.
205  2.04 -0.  0.
206  2.05 -0. -0.
207  2.06  0.  0.
208  2.07  0.  0.
209  2.08  0.  0.
210  2.09  0.  0.
211  2.10  0.  0.
212  2.11  0.  0.
213  2.12  0.  0.
214  2.13  0.  0.
215  2.14  0.  0.
216  2.15  0.  0.
217  2.16  0.  0.
218  2.17  0.  0.
219  2.18  0.  0.
220  2.19  0.  0.
221  2.20  0.  0.
222  2.21  0.  0.
223  2.22  0.  0.
224  2.23  0.  0.
225  2.24  0.  0.
226  2.25  0.  0.
227  2.26  0.  0.
228  2.27  0.  0.
229  2.28  0.  0.
230  2.29  0.  0.
231  2.30  0.  0.
232  2.31  0.  0.
233  2.32  0.  0.
234  2.33  0.  0.
235  2.34  0.  0.
236  2.35  0.  0.
237  2.36  0.  0.
238  2.37  0.  0.
239  2.38  0.  0.
240  2.39  0.  0.
241  2.40  0.  0.
242  2.41  0.  0.
243  2.42  0.  0.
244  2.43  0.  0.
245  2.44  0.  0.
246  2.45  0.  0.
247  2.46  0.  0.
248  2.47  0.  0.
249  2.48  0.  0.
250  2.49  0.  0.
251  2.50  0.  0.
252  2.51  0.  0.
253  2.52  0.  0.
254  2.53  0.  0.
255  2.54  0.  0.
256  2.55  0.  0.
257  2.56  0.  0.
258  2.57  0.  0.
259  2.58  0.  0.
260  2.59  0.  0.
261  2.60  0.  0.
262  2.61  0.  0.
263  2.62  0.  0.
264  2.63  0.  0.
265  2.64  0.  0.
266  2.65  0.  0.
267  2.66  0.  0.
268  2.67  0.  0.
269  2.68  0.  0.
270  2.69  0.  0.
271  2.70  0.  0.
272  2.71  0.  0.
273  2.72  0.  0.
274  2.73  0.  0.
275  2.74  0.  0.
276  2.75  0.  0.
277  2.76  0.  0.
278  2.77  0.  0.
279  2.78  0.  0.
280  2.79  0.  0.
281  2.80  0.  0.
282  2.81  0.  0.
283  2.82  0.  0.
284  2.83  0.  0.
285  2.84  0.  0.
286  2.85  0.  0.
287  2.86  0.  0.
288  2.87  0.  0.
289  2.88  0.  0.
290  2.89  0.  0.
291  2.90  0.  0.
292  2.91  0.  0.
293  2.92  0.  0.
294  2.93  0.  0.
295  2.94  0.  0.
296  2.95  0.  0.
297  2.96  0.  0.
298  2.97  0.  0.
299  2.98  0.  0.
300  2.99  0.  0.
301  3.00  0.  0.
302  3.01  0.  0.
303  3.02  0.  0.
304  3.03  0.  0.
305  3.04  0.  0.
306  3.05  0.  0.
307  3.06  0.  0.
308  3.07  0.  0.
309  3.08  0.  0.
310  3.09  0.  0.
311  3.10  0.  0.
312  3.11  0.  0.
313  3.12  0.  0.
314  3.13  0.  0.
315  3.14  0.  0.
316  3.15  0.  0.
317  3.16  0.  0.
318  3.17  0.  0.
319  3.18  0.  0.
320  3.19  0.  0.
321  3.20  0.  0.
322  3.21  0.  0.
323  3.22  0.  0.
324  3.23  0.  0.
325  3.24  0.  0.
326  3.25  0.  0.
327  3.26  0.  0.
328  3.27  0.  0.
329  3.28  0.  0.
330  3.29  0.  0.
331  3.30  0.  0.
332  3.31  0.  0.
333  3.32  0.  0.
334  3.33  0.  0.
335  3.34  0.  0.
336  3.35  0.  0.
337  3.36  0.  0.
338  3.37  0.  0.
339  3.38  0.  0.
340  3.39  0.  0.
341  3.40  0.  0.
342  3.41  0.  0.
343  3.42  0.  0.
344  3.43  0.  0.
345  3.44  0.  0.
346  3.45  0.  0.
347  3.46  0.  0.
348  3.47  0.  0.
349  3.48  0.  0.
350  3.49  0.  0.
351  3.50  0.  0.
352  3.51  0.  0.
353  3.52  0.  0.
354  3.53  0.  0.
355  3.54  0.  0.
356  3.55  0.  0.
357  3.56  0.  0.
358  3.57  0.  0.
359  3.58  0.  0.
360  3.59  0.  0.
361  3.60  0.  0.
362  3.61  0.  0.
363  3.62  0.  0.
364  3.63  0.  0.
365  3.64  0.  0.
366  3.65  0.  0.
367  3.66  0.  0.
368  3.67  0.  0.
369  3.68  0.  0.
370  3.69  0.  0.
371  3.70  0.  0.
372  3.71  0.  0.
373  3.72  0.  0.
374  3.73  0.  0.
375  3.74  0.  0.
376  3.75  0.  0.
377  3.76  0.  0.
378  3.77  0.  0.
379  3.78  0.  0.
380  3.79  0.  0.
381  3.80  0.  0.
382  3.81  0.  0.
383  3.82  0.  0.
384  3.83  0.  0.
385  3.84  0.  0.
386  3.85  0.  0.
387  3.86  0.  0.
388  3.87  0.  0.
389  3.88  0.  0.
390  3.89  0.  0.
391  3.90  0.  0.
392  3.91  0.  0.
393  3.92  0.  0.
394  3.93  0.  0.
395  3.94  0.  0.
396  3.95  0.  0.
397  3.96  0.  0.
398  3.97  0.  0.
399  3.98  0.  0.
400  3.99  0.  0.
401  4.00  0.  0.
402  4.01  0.  0.
403  4.02  0.  0.
404  4.03  0.  0.
405  4.04  0.  0.
406  4.05  0.  0.
407  4.06  0.  0.
408  4.07  0.  0.
409  4.08  0.  0.
410  4.09  0.  0.
411  4.10  0.  0.
412  4.11  0.  0.
413  4.12  0.  0.
414  4.13  0.  0.
415  4.14  0.  0.
416  4.15  0.  0.
417  4.16  0.  0.
418  4.17  0.  0.
419  4.18  0.  0.
420  4.19  0.  0.
421  4.20  0.  0.
422  4.21  0.  0.
423  4.22  0.  0.
424  4.23  0.  0.
425  4.24  0.  0.
426  4.25  0.  0.
427  4.26  0.  0.
428  4.27  0.  0.
429  4.28  0.  0.
430  4.29  0.  0.
431  4.30  0.  0.
432  4.31  0.  0.
433  4.32  0.  0.
434  4.33  0.  0.
435  4.34  0.  0.
436  4.35  0.  0.
437  4.36  0.  0.
438  4.37  0.  0.
439  4.38  0.  0.
440  4.39  0.  0.
441  4.40  0.  0.
442  4.41  0.  0.
443  4.42  0.  0.
444  4.43  0.  0.
445  4.44  0.  0.
446  4.45  0.  0.
447  4.46  0.  0.
448  4.47  0.  0.
449  4.48  0.  0.
450  4.49  0.  0.
451  4.50  0.  0.
452  4.51  0.  0.
453  4.52  0.  0.
454  4.53  0.  0.
455  4.54  0.  0.
456  4.55  0.  0.
457  4.56  0.  0.
458  4.57  0.  0.
459  4.58  0.  0.
460  4.59  0.  0.
461  4.60  0.  0.
462  4.61  0.  0.
463  4.62  0.  0.
464  4.63  0.  0.
465  4.64  0.  0.
466  4.65  0.  0.
467  4.66  0.  0.
468  4.67  0.  0.
469  4.68  0.  0.
470  4.69  0.  0.
471  4.70  0.  0.
472  4.71  0.  0.
473  4.72  0.  0.
474  4.73  0.  0.
475  4.74  0.  0.
476  4.75  0.  0.
477  4.76  0.  0.
478  4.77  0.  0.
479  4.78  0.  0.
480  4.79  0.  0.
481  4.80  0.  0.
482  4.81  0.  0.
483  4.82  0.  0.
484  4.83  0.  0.
485  4.84  0.  0.
486  4.85  0.  0.
487  4.86  0.  0.
488  4.87  0.  0.
489  4.88  0.  0.
490  4.89  0.  0.
491  4.90  0.  0.
492  4.91  0.  0.
493  4.92  0.  0.
494  4.93  0.  0.
495  4.94  0.  0.
496  4.95  0.  0.
497  4.96  0.  0.
498  4.97  0.  0.
499  4.98  0.  0.
500  4.99  0.  0.
501  5.00  0.  0.
502  5.01  0.  0.
503  5.02  0.  0.
504  5.03  0.  0.
505  5.04  0.  0.
506  5.05  0.  0.
507  5.06  0.  0.
508  5.07  0.  0.
509  5.08  0.  0.
510  5.09  0.  0.
511  5.10  0.  0.
512  5.11  0.  0.
513  5.12  0.  0.
514  5.13  0.  0.
515  5.14  0.  0.
516  5.15  0.  0.
517  5.16  0.  0.
518  5.17  0.  0.
519  5.18  0.  0.
520  5.19  0.  0.
521  5.20  0.  0.
522  5.21  0.  0.
523  5.22  0.  0.
524  5.23  0.  0.
525  5.24  0.  0.
526  5.25  0.  0.
527  5.26  0.  0.
528  5.27  0.  0.
529  5.28  0.  0.
530  5.29  0.  0.
531  5.30  0.  0.
532  5.31  0.  0.
533  5.32  0.  0.
534  5.33  0.  0.
535  5.34  0.  0.
536  5.35  0.  0.
537  5.36  0.  0.
538  5.37  0.  0.
539  5.38  0.  0.
540  5.39  0.  0.
541  5.40  0.  0.
542  5.41  0.  0.
543  5.42  0.  0.
544  5.43  0.  0.
545  5.44  0.  0.
546  5.45  0.  0.
547  5.46  0.  0.
548  5.47  0.  0.
549  5.48  0.  0.
550  5.49  0.  0.
551  5.50  0.  0.
552  5.51  0.  0.
553  5.52  0.  0.
554  5.53  0.  0.
555  5.54  0.  0.
556  5.55  0.  0.
557  5.56  0.  0.
558  5.57  0.  0.
559  5.58  0.  0.
560  5.59  0.  0.
561  5.60  0.  0.
562  5.61  0.  0.
563  5.62  0.  0.
564  5.63  0.  0.
565  5.64  0.  0.
566  5.65  0.  0.
567  5.66  0.  0.
568  5.67  0.  0.
569  5.68  0.  0.
570  5.69  0.  0.
571  5.70  0.  0.
572  5.71  0.  0.
573  5.72  0.  0.
574  5.73  0.  0.
575  5.74  0.  0.
576  5.75  0.  0.
577  5.76  0.  0.
578  5.77  0.  0.
579  5.78  0.  0.
580  5.79  0.  0.
581  5.80  0.  0.
582  5.81  0.  0.
583  5.82  0.  0.
584  5.83  0.  0.
585  5.84  0.  0.
586  5.85  0.  0.
587  5.86  0.  0.
588  5.87  0.  0.
589  5.88  0.  0.
590  5.89  0.  0.
591  5.90  0.  0.
592  5.91  0.  0.
593  5.92  0.  0.
594  5.93  0.  0.
595  5.94  0.  0.
596  5.95  0.  0.
597  5.96  0.  0.
598  5.97  0.  0.
599  5.98  0.  0.
600  5.99  0.  0.
1                         5.1382153406498E+00  1.7726763684624E+00
1  0.0000000000000E+00  2.4258370631691E-08 -3.7204457091489E-08
2  1.0000000000000E-02  1.5331997839154E-03 -1.2016845099358E-03
3  2.0000000000000E-02  6.1008632652862E-03 -4.7599677573529E-03
4  3.0000000000000E-02  1.3607879184435E-02 -1.0535602268728E-02
5  4.0000000000000E-02  2.3898035589359E-02 -1.8300031473639E-02
6  5.0000000000000E-02  3.6757430091274E-02 -2.7740596877655E-02
7  6.0000000000000E-02  5.1919145313044E-02 -3.8467676364493E-02
8  7.0000000000000E-02  6.9069092985108E-02 -5.0023605520721E-02
9  8.0000000000000E-02  8.7852905885152E-02 -6.1893196671790E-02
10  9.0000000000000E-02  1.0788373496466E-01 -7.3515636809939E-02
11  1.0000000000000E-01  1.2875078999574E-01 -8.4297516455965E-02
12  1.1000000000000E-01  1.5002844628800E-01 -9.3626717315204E-02
13  1.2000000000000E-01  1.7128572778743E-01 -1.0088686785498E-01
14  1.3000000000000E-01  1.9209596842897E-01 -1.0547206303158E-01
15  1.4000000000000E-01  2.1204644914832E-01 -1.0680153760076E-01
16  1.5000000000000E-01  2.3074780756653E-01 -1.0433398190988E-01
17  1.6000000000000E-01  2.4784302106351E-01 -9.7581194820974E-02
18  1.7000000000000E-01  2.6301577169303E-01 -8.6120780359776E-02
19  1.8000000000000E-01  2.7599801302315E-01 -6.9607612610452E-02
20  1.9000000000000E-01  2.8657657429659E-01 -4.7783816945437E-02
21  2.0000000000000E-01  2.9459865600574E-01 -2.0487044450228E-02
22  2.1000000000000E-01  2.9997609271062E-01  1.2343150175641E-02
23  2.2000000000000E-01  3.0268828327900E-01  5.0660979530166E-02
24  2.3000000000000E-01  3.0278371522372E-01  9.4312254806547E-02
25  2.4000000000000E-01  3.0038003794145E-01  1.4303444584176E-01
26  2.5000000000000E-01  2.9566266886870E-01  1.9645899342261E-01
27  2.6000000000000E-01  2.8888194629456E-01  2.5411585172823E-01
28  2.7000000000000E-01  2.8034887221821E-01  3.1544019329111E-01
29  2.8000000000000E-01  2.7042951762738E-01  3.7978116439523E-01
30  2.9000000000000E-01  2.5953819032370E-01  4.4641253628552E-01
31  3.0000000000000E-01  2.4812949137582E-01  5.1454505779356E-01
32  3.1000000000000E-01  2.3668940991788E-01  5.8334027879424E-01
33  3.2000000000000E-01  2.2572562684537E-01  6.5192558203762E-01
34  3.3000000000000E-01  2.1575721556437E-01  7.1941013400969E-01
35  3.4000000000000E-01  2.0730394195028E-01  7.8490144413220E-01
36  3.5000000000000E-01  2.0087537576923E-01  8.4752220627828E-01
37  3.6000000000000E-01  1.9696003177804E-01  9.0642708760451E-01
38  3.7000000000000E-01  1.9601476039959E-01  9.6081912730961E-01
39  3.8000000000000E-01  1.9845460520185E-01  1.0099654122233E+00
40  3.9000000000000E-01  2.0464333740767E-01  1.0532117070766E+00
41  4.0000000000000E-01  2.1488486643128E-01  1.0899957347474E+00
42  4.1000000000000E-01  2.2941571016064E-01  1.1198588254240E+00
43  4.2000000000000E-01  2.4839868964724E-01  1.1424556830725E+00
44  4.3000000000000E-01  2.7191799036795E-01  1.1575620523057E+00
45  4.4000000000000E-01  2.9997570669693E-01  1.1650801080960E+00
46  4.5000000000000E-01  3.3248995814222E-01  1.1650414340227E+00
47  4.6000000000000E-01  3.6929463578780E-01  1.1576075010824E+00
48  4.7000000000000E-01  4.1014080580731E-01  1.1430676076435E+00
49  4.8000000000000E-01  4.5469976448447E-01  1.1218342909561E+00
50  4.9000000000000E-01  5.0256770651182E-01  1.0944362707825E+00
51  5.0000000000000E-01  5.5327193608027E-01  1.0615090352031E+00
52  5.1000000000000E-01  6.0627851904901E-01  1.0237832265113E+00
53  5.2000000000000E-01  6.6100124491871E-01  9.8207103038345E-01
54  5.3000000000000E-01  7.1681174001191E-01  9.3725081328718E-01
55  5.4000000000000E-01  7.7305054874897E-01  8.9025029052273E-01
56  5.5000000000000E-01  8.2903897869927E-01  8.4202853960011E-01
57  5.6000000000000E-01  8.8409148763369E-01  7.9355720016167E-01
58  5.7000000000000E-01  9.3752837748206E-01  7.4580122178255E-01
59  5.8000000000000E-01  9.8868855121035E-01  6.9969953426507E-01
60  5.9000000000000E-01  1.0369420843951E+00  6.5614602115429E-01
61  6.0000000000000E-01  1.0817023638183E+00  6.1597117594625E-01
62  6.1000000000000E-01  1.1224375507749E+00  5.7992481178160E-01
63  6.2000000000000E-01  1.1586811369213E+00  5.4866017940423E-01
64  6.3000000000000E-01  1.1900413752561E+00  5.2271982504799E-01
65  6.4000000000000E-01  1.2162093879745E+00  5.0252349006481E-01
66  6.5000000000000E-01  1.2369657761482E+00  4.8835831802851E-01
67  6.6000000000000E-01  1.2521855830596E+00  4.8037159337233E-01
68  6.7000000000000E-01  1.2618414930687E+00  4.7856618908691E-01
69  6.8000000000000E-01  1.2660051805780E+00  4.8279885046661E-01
70  6.9000000000000E-01  1.2648467583799E+00  4.9278138828029E-01
71  7.0000000000000E-01  1.2586323107724E+00  5.0808479905313E-01
72  7.1000000000000E-01  1.2477195336355E+00  5.2814627344135E-01
73  7.2000000000000E-01  1.2325515404684E+00  5.5227899703203E-01
74  7.3000000000000E-01  1.2136489294933E+00  5.7968459241058E-01
75  7.4000000000000E-01  1.1916002416231E+00  6.0946799808436E-01
76  7.5000000000000E-01  1.1670509716996E+00  6.4065452988299E-01
77  7.6000000000000E-01  1.1406913252722E+00  6.7220882477847E-01
78  7.7000000000000E-01  1.1132429397165E+00  7.0305532660212E-01
79  7.8000000000000E-01  1.0854448111280E+00  7.3209993871793E-01
80  7.9000000000000E-01  1.0580386867076E+00  7.5825244107550E-01
81  8.0000000000000E-01  1.0317541958721E+00  7.8044924881118E-01
82  8.1000000000000E-01  1.0072940017788E+00  7.9767607716774E-01
83  8.2000000000000E-01  9.8531925811958E-01  8.0899007328338E-01
84  8.3000000000000E-01  9.6643565381367E-01  8.1354097953219E-01
85  8.4000000000000E-01  9.5118032058585E-01  8.1059090559276E-01
86  8.5000000000000E-01  9.4000986545382E-01  7.9953230713232E-01
87  8.6000000000000E-01  9.3328977205506E-01  7.7990379761364E-01
88  8.7000000000000E-01  9.3128539181340E-01  7.5140345580158E-01
89  8.8000000000000E-01  9.3415471856564E-01  7.1389933445625E-01
90  8.9000000000000E-01  9.4194310891707E-01  6.6743692470761E-01
91  9.0000000000000E-01  9.5458007582558E-01  6.1224338484420E-01
92  9.1000000000000E-01  9.7187824536017E-01  5.4872840073502E-01
93  9.2000000000000E-01  9.9353452691823E-01  4.7748160678350E-01
94  9.3000000000000E-01  1.0191335061584E+00  3.9926656003638E-01
95  9.4000000000000E-01  1.0481530282700E+00  3.1501132466057E-01
96  9.5000000000000E-01  1.0799718977430E+00  2.2579578824019E-01
97  9.6000000000000E-01  1.1138795803025E+00  1.3283589402432E-01
98  9.7000000000000E-01  1.1490877539209E+00  3.7465033153757E-02
99  9.8000000000000E-01  1.1847435195343E+00 -5.8887103101166E-02
100  9.9000000000000E-01  1.2199440490092E+00 -1.5471786008733E-01
101  1.0000000000000E+00  1.2537524186506E+00 -2.4847674952167E-01
102  1.0100000000000E+00  1.2852143517249E+00 -3.3859193822744E-01
103  1.0200000000000E+00  1.3133755735524E+00 -4.2349763143604E-01
104  1.0300000000000E+00  1.3372994681672E+00 -5.0166186419671E-01
105  1.0400000000000E+00  1.3560847166197E+00 -5.7161420117147E-01
106  1.0500000000000E+00  1.3688825939364E+00 -6.3197284094290E-01
107  1.0600000000000E+00  1.3749136046631E+00 -6.8147062609966E-01
108  1.0700000000000E+00  1.3734831457463E+00 -7.1897947469064E-01
109  1.0800000000000E+00  1.3639959002135E+00 -7.4353277208365E-01
110  1.0900000000000E+00  1.3459686853361E+00 -7.5434529427195E-01
111  1.1000000000000E+00  1.3190415045043E+00 -7.5083027391990E-01
112  1.1100000000000E+00  1.2829865823391E+00 -7.3261326805028E-01
113  1.1200000000000E+00  1.2377151971544E+00 -6.9954254051557E-01
114  1.1300000000000E+00  1.1832821631546E+00 -6.5169573233769E-01
115  1.1400000000000E+00  1.1198878559196E+00 -5.8938265739135E-01
116  1.1500000000000E+00  1.0478777182305E+00 -5.1314412890115E-01
117  1.1600000000000E+00  9.6773922809665E-01 -4.2374679219332E-01
118  1.1700000000000E+00  8.8009635638542E-01 -3.2217401022880E-01
119  1.1800000000000E+00  7.8570158670159E-01 -2.0961291902506E-01
120  1.1900000000000E+00  6.8542561435933E-01 -8.7437838990881E-02
121  1.2000000000000E+00  5.8024488373422E-01  4.2809705638351E-02
122  1.2100000000000E+00  4.7122716284683E-01  1.7944404542329E-01
123  1.2200000000000E+00  3.5951539054507E-01  3.2066113166766E-01
124  1.2300000000000E+00  2.4631006377628E-01  4.6456658891308E-01
125  1.2400000000000E+00  1.3285046017336E-01  6.0920559000392E-01
126  1.2500000000000E+00  2.0395013633734E-02  7.5259405475970E-01
127  1.2600000000000E+00 -8.9798822584267E-02  8.9275064703551E-01
128  1.2700000000000E+00 -1.9649487966771E-01  1.0277290276962E+00
129  1.2800000000000E+00 -2.9849839356526E-01  1.1556498134776E+00
130  1.2900000000000E+00 -3.9467559270030E-01  1.2747316936213E+00
131  1.3000000000000E+00 -4.8397241153366E-01  1.3833211678405E+00
132  1.3100000000000E+00 -5.6543200204974E-01  1.4799203902502E+00
133  1.3200000000000E+00 -6.3821073458791E-01  1.5632126338478E+00
134  1.3300000000000E+00 -7.0159240446769E-01  1.6320849288990E+00