Ce    ONCVPSP-4.0.1  r_core=   2.00895   1.60047   1.90366   1.40311
58.0000     12.0000      241015    zatom,zion,pspd
8      11   3     4   600     0    pspcod,pspxc,lmax,lloc,mmax,r2well
5.99000000  4.00000000  0.00000000    rchrg fchrg qchrg
3     2     2     2     0    nproj
1     1           extension_switch
0                         1.1928158549293E+01  3.3118350444508E+00  8.1807483577764E-01
1  0.0000000000000E+00 -2.4820195898556E-09  5.1254274713308E-09 -4.0365854547808E-09
2  1.0000000000000E-02  5.1076805653528E-02 -4.2899217639715E-02  3.1905993319242E-02
3  2.0000000000000E-02  1.0184904399350E-01 -8.5165259785069E-02  6.3319345538706E-02
4  3.0000000000000E-02  1.5201609736237E-01 -1.2617334531264E-01  9.3754075848280E-02
5  4.0000000000000E-02  2.0128519612064E-01 -1.6531537471587E-01  1.2273743916718E-01
6  5.0000000000000E-02  2.4937521506057E-01 -2.0200800442123E-01  1.4981633292319E-01
7  6.0000000000000E-02  2.9602031848865E-01 -2.3570040499526E-01  1.7456345342798E-01
8  7.0000000000000E-02  3.4097340648215E-01 -2.6588160396145E-01  1.9658312317513E-01
9  8.0000000000000E-02  3.8400931730719E-01 -2.9208731907201E-01  2.1551671442426E-01
10  9.0000000000000E-02  4.2492774403222E-01 -3.1390619417147E-01  2.3104759939110E-01
11  1.0000000000000E-01  4.6355582694521E-01 -3.3098535717267E-01  2.4290556318085E-01
12  1.1000000000000E-01  4.9975038744127E-01 -3.4303522805191E-01  2.5087062221123E-01
13  1.2000000000000E-01  5.3339977354225E-01 -3.4983351406028E-01  2.5477619819602E-01
14  1.3000000000000E-01  5.6442529208626E-01 -3.5122833942981E-01  2.5451160571071E-01
15  1.4000000000000E-01  5.9278220782336E-01 -3.4714046760589E-01  2.5002381984600E-01
16  1.5000000000000E-01  6.1846029511247E-01 -3.3756458533284E-01  2.4131849937128E-01
17  1.6000000000000E-01  6.4148393356632E-01 -3.2256962962056E-01  2.2846025007240E-01
18  1.7000000000000E-01  6.6191174476696E-01 -3.0229815058601E-01  2.1157212238471E-01
19  1.8000000000000E-01  6.7983577300439E-01 -2.7696471524804E-01  1.9083434700089E-01
20  1.9000000000000E-01  6.9538021880337E-01 -2.4685336941445E-01  1.6648232167872E-01
21  2.0000000000000E-01  7.0869973972540E-01 -2.1231418668133E-01  1.3880387188853E-01
22  2.1000000000000E-01  7.1997733849575E-01 -1.7375894513019E-01  1.0813581711222E-01
23  2.2000000000000E-01  7.2942186383815E-01 -1.3165598340895E-01  7.4859883422099E-02
24  2.3000000000000E-01  7.3726515443567E-01 -8.6524298381281E-02  3.9398011316965E-02
25  2.4000000000000E-01  7.4375886111361E-01 -3.8926956300306E-02  2.2071155783551E-03
26  2.5000000000000E-01  7.4917098659582E-01  1.0536101627512E-02 -3.6226638976240E-02
27  2.6000000000000E-01  7.5378218597010E-01  6.1235770472705E-02 -7.5393975601313E-02
28  2.7000000000000E-01  7.5788187425565E-01  1.1252191392050E-01 -1.1476898182967E-01
29  2.8000000000000E-01  7.6176419015953E-01  1.6373181631032E-01 -1.5381584339568E-01
30  2.9000000000000E-01  7.6572386719659E-01  2.1419884849627E-01 -1.9199575185216E-01
31  3.0000000000000E-01  7.7005206480507E-01  2.6326123846506E-01 -2.2877389923123E-01
32  3.1000000000000E-01  7.7503221289094E-01  3.1027083581418E-01 -2.6362647153621E-01
33  3.2000000000000E-01  7.8093592336882E-01  3.5460175873080E-01 -2.9604755236971E-01
34  3.3000000000000E-01  7.8801902172613E-01  3.9565881304092E-01 -3.2555584862184E-01
35  3.4000000000000E-01  7.9651775042627E-01  4.3288557520966E-01 -3.5170115185514E-01
36  3.5000000000000E-01  8.0664519409390E-01  4.6577203485125E-01 -3.7407045182092E-01
37  3.6000000000000E-01  8.1858797391255E-01  4.9386169731092E-01 -3.9229362239444E-01
38  3.7000000000000E-01  8.3250325553705E-01  5.1675805315727E-01 -4.0604860508518E-01
39  3.8000000000000E-01  8.4851611111720E-01  5.3413032890479E-01 -4.1506602111081E-01
40  3.9000000000000E-01  8.6671727178781E-01  5.4571844187894E-01 -4.1913314975004E-01
41  4.0000000000000E-01  8.8716130225102E-01  5.5133709175203E-01 -4.1809721824139E-01
42  4.1000000000000E-01  9.0986522391981E-01  5.5087893179010E-01 -4.1186795677413E-01
43  4.2000000000000E-01  9.3480760756520E-01  5.4431677414348E-01 -4.0041938103630E-01
44  4.3000000000000E-01  9.6192815058469E-01  5.3170479544286E-01 -3.8379077422888E-01
45  4.4000000000000E-01  9.9112774795442E-01  5.1317872138717E-01 -3.6208685031708E-01
46  4.5000000000000E-01  1.0222690597211E+00  4.8895498177165E-01 -3.3547709044420E-01
47  4.6000000000000E-01  1.0551775716068E+00  4.5932884034876E-01 -3.0419425476018E-01
48  4.7000000000000E-01  1.0896431390220E+00  4.2467151687573E-01 -2.6853208228433E-01
49  4.8000000000000E-01  1.1254219985889E+00  3.8542633151588E-01 -2.2884220170174E-01
50  4.9000000000000E-01  1.1622392252489E+00  3.4210391426560E-01 -1.8553028605609E-01
51  5.0000000000000E-01  1.1997916072423E+00  2.9527653410856E-01 -1.3905149401742E-01
52  5.1000000000000E-01  1.2377509057820E+00  2.4557161400009E-01 -8.9905249648510E-02
53  5.2000000000000E-01  1.2757674611698E+00  1.9366450840677E-01 -3.8629421247433E-02
54  5.3000000000000E-01  1.3134741024883E+00  1.4027062982688E-01  1.4206032208331E-02
55  5.4000000000000E-01  1.3504903139139E+00  8.6137019363719E-02  6.8005871356883E-02
56  5.5000000000000E-01  1.3864266071812E+00  3.2033463905494E-02  1.2215676159645E-01
57  5.6000000000000E-01  1.4208890468519E+00 -2.1256731335422E-02  1.7603474596080E-01
58  5.7000000000000E-01  1.4534838728297E+00 -7.2946201328290E-02  2.2901291444149E-01
59  5.8000000000000E-01  1.4838221630576E+00 -1.2225309377450E-01  2.8046917543886E-01
60  5.9000000000000E-01  1.5115244785587E+00 -1.6841063678472E-01  3.2979403316676E-01
61  6.0000000000000E-01  1.5362254329502E+00 -2.1067658236955E-01  3.7639827418735E-01
62  6.1000000000000E-01  1.5575781292778E+00 -2.4834240756945E-01  4.1972046682694E-01
63  6.2000000000000E-01  1.5752584084801E+00 -2.8074215772109E-01  4.5923417902733E-01
64  6.3000000000000E-01  1.5889688559860E+00 -3.0726082053246E-01  4.9445482319940E-01
65  6.4000000000000E-01  1.5984425158461E+00 -3.2734212526865E-01  5.2494604083690E-01
66  6.5000000000000E-01  1.6034462653692E+00 -3.4049566837477E-01  5.5032554497354E-01
67  6.6000000000000E-01  1.6037838074297E+00 -3.4630327518748E-01  5.7027034495941E-01
68  6.7000000000000E-01  1.5992982423893E+00 -3.4442451691628E-01  5.8452128541989E-01
69  6.8000000000000E-01  1.5898741868568E+00 -3.3460131268239E-01  5.9288683954818E-01
70  6.9000000000000E-01  1.5754394122491E+00 -3.1666155795478E-01  5.9524610596879E-01
71  7.0000000000000E-01  1.5559659822165E+00 -2.9052173306735E-01  5.9155096818000E-01
72  7.1000000000000E-01  1.5314708743955E+00 -2.5618845847367E-01  5.8182738590886E-01
73  7.2000000000000E-01  1.5020160785507E+00 -2.1375897683181E-01  5.6617579846766E-01
74  7.3000000000000E-01  1.4677081698879E+00 -1.6342055571878E-01  5.4477063123465E-01
75  7.4000000000000E-01  1.4286973630690E+00 -1.0544881858581E-01  5.1785890756445E-01
76  7.5000000000000E-01  1.3851760591353E+00 -4.0205025272894E-02  4.8575797959924E-01
77  7.6000000000000E-01  1.3373769040756E+00  3.1867663159805E-02  4.4885240247317E-01
78  7.7000000000000E-01  1.2855703840500E+00  1.1024888755903E-01  4.0758998711383E-01
79  7.8000000000000E-01  1.2300619882264E+00  1.9434670170908E-01  3.6247707711741E-01
80  7.9000000000000E-01  1.1711889757173E+00  2.8350401969227E-01  3.1407310486463E-01
81  8.0000000000000E-01  1.1093167881381E+00  3.7700581746202E-01  2.6298449102156E-01
82  8.1000000000000E-01  1.0448351537808E+00  4.7408699708081E-01  2.0985795971830E-01
83  8.2000000000000E-01  9.7815393324437E-01  5.7394081389386E-01  1.5537334890831E-01
84  8.3000000000000E-01  9.0969875952360E-01  6.7572776009432E-01  1.0023600158130E-01
85  8.4000000000000E-01  8.3990652799994E-01  7.7858479276868E-01  4.5168828563755E-02
86  8.5000000000000E-01  7.6922079345426E-01  8.8163479068222E-01 -9.0958624856364E-03
87  8.6000000000000E-01  6.9808713211608E-01  9.8399612181002E-01 -6.1824674629530E-02
88  8.7000000000000E-01  6.2694852686170E-01  1.0847922029775E+00 -1.1229146711191E-01
89  8.8000000000000E-01  5.5624083297520E-01  1.1831609339471E+00 -1.5978563996677E-01
90  8.9000000000000E-01  4.8638838040068E-01  1.2782638908546E+00 -2.0362026016817E-01
91  9.0000000000000E-01  4.1779976616618E-01  1.3692951680210E+00 -2.4313993410573E-01
92  9.1000000000000E-01  3.5086388768091E-01  1.4554897627738E+00 -2.7772833475937E-01
93  9.2000000000000E-01  2.8594626394354E-01  1.5361314049220E+00 -3.0681529667452E-01
94  9.3000000000000E-01  2.2338568740468E-01  1.6105597408296E+00 -3.2988339762704E-01
95  9.4000000000000E-01  1.6349124436589E-01  1.6781767914972E+00 -3.4647395262381E-01
96  9.5000000000000E-01  1.0653973644279E-01  1.7384526145425E+00 -3.5619235350248E-01
97  9.6000000000000E-01  5.2773529849080E-02  1.7909301113164E+00 -3.5871269576096E-01
98  9.7000000000000E-01  2.3988531646467E-03  1.8352289324058E+00 -3.5378164322010E-01
99  9.8000000000000E-01 -4.4415442084704E-02  1.8710484473099E+00 -3.4122149058499E-01
100  9.9000000000000E-01 -8.7538650183339E-02  1.8981697569024E+00 -3.2093239376453E-01
101  1.0000000000000E+00 -1.2687850798607E-01  1.9164567402481E+00 -2.9289374779573E-01
102  1.0100000000000E+00 -1.6238102481758E-01  1.9258561402017E+00 -2.5716470224763E-01
103  1.0200000000000E+00 -1.9402985697128E-01  1.9263967048162E+00 -2.1388381392145E-01
104  1.0300000000000E+00 -2.2184524434425E-01  1.9181874137134E+00 -1.6326784635525E-01
105  1.0400000000000E+00 -2.4588253249074E-01  1.9014148300457E+00 -1.0560973496658E-01
106  1.0500000000000E+00 -2.6623030871135E-01  1.8763396293564E+00 -4.1275745507147E-02
107  1.0600000000000E+00 -2.8300818562812E-01  1.8432923663356E+00  2.9298138267999E-02
108  1.0700000000000E+00 -2.9636426996672E-01  1.8026685490621E+00  1.0561055428197E-01
109  1.0800000000000E+00 -3.0647235791412E-01  1.7549230976842E+00  1.8709977897116E-01
110  1.0900000000000E+00 -3.1352890138365E-01  1.7005642705256E+00  2.7314936516526E-01
111  1.1000000000000E+00 -3.1774979177012E-01  1.6401471452397E+00  3.6309433985826E-01
112  1.1100000000000E+00 -3.1936700927563E-01  1.5742667458137E+00  4.5622789657748E-01
113  1.1200000000000E+00 -3.1862518662162E-01  1.5035509079311E+00  5.5180851380865E-01
114  1.1300000000000E+00 -3.1577813592330E-01  1.4286529754261E+00  6.4906742855242E-01
115  1.1400000000000E+00 -3.1108538670321E-01  1.3502444193456E+00  7.4721639252098E-01
116  1.1500000000000E+00 -3.0480878146981E-01  1.2690074685215E+00  8.4545563765362E-01
117  1.1600000000000E+00 -2.9720917303017E-01  1.1856278366382E+00  9.4298197743847E-01
118  1.1700000000000E+00 -2.8854326477237E-01  1.1007876256587E+00  1.0389969708480E+00
119  1.1800000000000E+00 -2.7906063161180E-01  1.0151584792947E+00  1.1327150763762E+00
120  1.1900000000000E+00 -2.6900095520826E-01  9.2939505313229E-01  1.2233717245384E+00
121  1.2000000000000E+00 -2.5859150249329E-01  8.4412886021499E-01  1.3102312380558E+00
122  1.2100000000000E+00 -2.4804487163149E-01  7.5996254262961E-01  1.3925945295866E+00
123  1.2200000000000E+00 -2.3755702429721E-01  6.7746461103443E-01  1.4698065070366E+00
124  1.2300000000000E+00 -2.2730561778962E-01  5.9716468554674E-01  1.5412631159284E+00
125  1.2400000000000E+00 -2.1744864505624E-01  5.1954926307780E-01  1.6064179467559E+00
126  1.2500000000000E+00 -2.0812338533199E-01  4.4505802846909E-01  1.6647883323710E+00
127  1.2600000000000E+00 -1.9944566297308E-01  3.7408071995787E-01  1.7159608559970E+00
128  1.2700000000000E+00 -1.9150940724964E-01  3.0695455384122E-01  1.7595961839912E+00
129  1.2800000000000E+00 -1.8438650160038E-01  2.4396220919016E-01  1.7954331287291E+00
130  1.2900000000000E+00 -1.7812690725631E-01  1.8533037137240E-01  1.8232918355991E+00
131  1.3000000000000E+00 -1.7275904338049E-01  1.3122883342689E-01  1.8430759735290E+00
132  1.3100000000000E+00 -1.6829040417393E-01  8.1770157423763E-02  1.8547737904853E+00
133  1.3200000000000E+00 -1.6470839291172E-01  3.7009904216837E-02  1.8584578735711E+00
134  1.3300000000000E+00 -1.6198135383931E-01 -3.0525499456998E-03  1.8542834269773E+00
135  1.3400000000000E+00 -1.6005978548877E-01 -3.8472577255906E-02  1.8424848499872E+00
136  1.3500000000000E+00 -1.5887772350838E-01 -6.9358190915864E-02  1.8233703607456E+00
137  1.3600000000000E+00 -1.5835428775938E-01 -9.5867190488812E-02  1.7973143692873E+00
138  1.3700000000000E+00 -1.5839539758213E-01 -1.1820345369931E-01  1.7647472543415E+00
139  1.3800000000000E+00 -1.5889567093781E-01 -1.3661223142002E-01  1.7261421401545E+00
140  1.3900000000000E+00 -1.5974053821916E-01 -1.5137425684885E-01  1.6819981968388E+00
141  1.4000000000000E+00 -1.6080861852619E-01 -1.6279845391337E-01  1.6328201949474E+00
142  1.4100000000000E+00 -1.6197443164169E-01 -1.7121289188443E-01  1.5790931526738E+00
143  1.4200000000000E+00 -1.6311146577012E-01 -1.7695619304778E-01  1.5212817599154E+00
144  1.4300000000000E+00 -1.6409508130330E-01 -1.8037245681045E-01  1.4598616971677E+00
145  1.4400000000000E+00 -1.6480496289563E-01 -1.8180640779930E-01  1.3953246946828E+00
146  1.4500000000000E+00 -1.6512737073973E-01 -1.8159826406042E-01  1.3281726921517E+00
147  1.4600000000000E+00 -1.6495721781559E-01 -1.8007890882717E-01  1.2589125111633E+00
148  1.4700000000000E+00 -1.6419994268240E-01 -1.7756540387712E-01  1.1880506234555E+00
149  1.4800000000000E+00 -1.6277315312437E-01 -1.7435690414939E-01  1.1160881270532E+00
150  1.4900000000000E+00 -1.6060801960438E-01 -1.7073102299185E-01  1.0435159814136E+00
151  1.5000000000000E+00 -1.5765040166476E-01 -1.6694068933249E-01  9.7081054766184E-01
152  1.5100000000000E+00 -1.5386169479897E-01 -1.6321152958427E-01  8.9842947473498E-01
153  1.5200000000000E+00 -1.4921938983852E-01 -1.5973979826798E-01  8.2680796642155E-01
154  1.5300000000000E+00 -1.4371734149159E-01 -1.5669087236705E-01  7.5635545847156E-01
155  1.5400000000000E+00 -1.3736574723928E-01 -1.5419831539357E-01  6.8745272855458E-01
156  1.5500000000000E+00 -1.3019084229779E-01 -1.5236350822722E-01  6.2044945561958E-01
157  1.5600000000000E+00 -1.2223432070227E-01 -1.5125583511225E-01  5.5566223892522E-01
158  1.5700000000000E+00 -1.1355249672170E-01 -1.5091340479867E-01  4.9337308050303E-01
159  1.5800000000000E+00 -1.0421522467747E-01 -1.5134427898907E-01  4.3382832889148E-01
160  1.5900000000000E+00 -9.4304598796177E-02 -1.5252817290174E-01  3.7723807586933E-01
161  1.6000000000000E+00 -8.3913457894651E-02 -1.5441858616489E-01  3.2377599241225E-01
162  1.6100000000000E+00 -7.3143722461704E-02 -1.5694531634093E-01  2.7357958468636E-01
163  1.6200000000000E+00 -6.2104593988765E-02 -1.6001730241082E-01  2.2675084628139E-01
164  1.6300000000000E+00 -5.0910648225804E-02 -1.6352574137978E-01  1.8335727843669E-01
165  1.6400000000000E+00 -3.9679855348648E-02 -1.6734741797794E-01  1.4343324621946E-01
166  1.6500000000000E+00 -2.8531560795358E-02 -1.7134818529939E-01  1.0698163564646E-01
167  1.6600000000000E+00 -1.7584460794641E-02 -1.7538653298382E-01  7.3975774009467E-02
168  1.6700000000000E+00 -6.9546063368442E-03 -1.7931717936922E-01  4.4361573783877E-02
169  1.6800000000000E+00  3.2465314745063E-03 -1.8299462493729E-01  1.8059859436095E-02
170  1.6900000000000E+00  1.2913903027868E-02 -1.8627660608160E-01 -5.0311643969388E-03
171  1.7000000000000E+00  2.1950598903548E-02 -1.8902739104867E-01 -2.5033344597991E-02
172  1.7100000000000E+00  3.0269418011109E-02 -1.9112086343357E-01 -4.2085951908420E-02
173  1.7200000000000E+00  3.7794260172883E-02 -1.9244334313889E-01 -5.6343033181601E-02
174  1.7300000000000E+00  4.4461321149660E-02 -1.9289609979901E-01 -6.7970781173148E-02
175  1.7400000000000E+00  5.0220071431709E-02 -1.9239751948911E-01 -7.7144957131055E-02
176  1.7500000000000E+00  5.5034003735839E-02 -1.9088489197607E-01 -8.4048398507734E-02
177  1.7600000000000E+00  5.8881137931873E-02 -1.8831579251998E-01 -8.8868641026857E-02
178  1.7700000000000E+00  6.1754276068750E-02 -1.8466903933685E-01 -9.1795680925046E-02
179  1.7800000000000E+00  6.3661004260807E-02 -1.7994521535874E-01 -9.3019899041496E-02
180  1.7900000000000E+00  6.4623442206796E-02 -1.7416675019683E-01 -9.2730164848361E-02
181  1.8000000000000E+00  6.4677745202852E-02 -1.6737756583749E-01 -9.1112134041963E-02
182  1.8100000000000E+00  6.3873367402118E-02 -1.5964229676599E-01 -8.8346749451851E-02
183  1.8200000000000E+00  6.2272098890946E-02 -1.5104510239916E-01 -8.4608950646145E-02
184  1.8300000000000E+00  5.9946892705696E-02 -1.4168809637946E-01 -8.0066593638980E-02
185  1.8400000000000E+00  5.6980501190836E-02 -1.3168942346783E-01 -7.4879578332084E-02
186  1.8500000000000E+00  5.3463944105985E-02 -1.2118102055172E-01 -6.9199177489169E-02
187  1.8600000000000E+00  4.9494833496437E-02 -1.1030610330284E-01 -6.3167557713785E-02
188  1.8700000000000E+00  4.5175583601627E-02 -9.9216426266458E-02 -5.6917478689895E-02
189  1.8800000000000E+00  4.0611534121584E-02 -8.8069364524524E-02 -5.0572156194986E-02
190  1.8900000000000E+00  3.5908942442188E-02 -7.7024730419854E-02 -4.4245359669963E-02
191  1.9000000000000E+00  3.1173372175631E-02 -6.6242299289232E-02 -3.8041138282554E-02
192  1.9100000000000E+00  2.6505507372414E-02 -5.5874532636089E-02 -3.2056708002620E-02
193  1.9200000000000E+00  2.1982063576915E-02 -4.6031606234646E-02 -2.6402957449853E-02
194  1.9300000000000E+00  1.7684438307737E-02 -3.6834977041309E-02 -2.1168879494998E-02
195  1.9400000000000E+00  1.3708473802014E-02 -2.8435887518143E-02 -1.6408531175102E-02
196  1.9500000000000E+00  1.0135762135387E-02 -2.0962480884681E-02 -1.2173466365504E-02
197  1.9600000000000E+00  7.0356199963573E-03 -1.4523760276626E-02 -8.5090889576092E-03
198  1.9700000000000E+00  4.4632229350070E-03 -9.2063802605264E-03 -5.4557461226747E-03
199  1.9800000000000E+00  2.4593729651111E-03 -5.0746345070029E-03 -3.0503965988329E-03
200  1.9900000000000E+00  1.0399500937455E-03 -2.1488189757696E-03 -1.3138808270448E-03
201  2.0000000000000E+00  2.4065732339331E-04 -4.9860232527542E-04 -3.1199997561868E-04
202  2.0100000000000E+00 -9.0720970838695E-06  1.8813549910722E-05  1.1012711254718E-05
203  2.0200000000000E+00 -3.5107333336862E-06  7.2997938834508E-06  4.6131362573771E-06
204  2.03  0. -0. -0.
205  2.04 -0.  0.  0.
206  2.05  0. -0.  0.
207  2.06  0.  0.  0.
208  2.07  0.  0.  0.
209  2.08  0.  0.  0.
210  2.09  0.  0.  0.
211  2.10  0.  0.  0.
212  2.11  0.  0.  0.
213  2.12  0.  0.  0.
214  2.13  0.  0.  0.
215  2.14  0.  0.  0.
216  2.15  0.  0.  0.
217  2.16  0.  0.  0.
218  2.17  0.  0.  0.
219  2.18  0.  0.  0.
220  2.19  0.  0.  0.
221  2.20  0.  0.  0.
222  2.21  0.  0.  0.
223  2.22  0.  0.  0.
224  2.23  0.  0.  0.
225  2.24  0.  0.  0.
226  2.25  0.  0.  0.
227  2.26  0.  0.  0.
228  2.27  0.  0.  0.
229  2.28  0.  0.  0.
230  2.29  0.  0.  0.
231  2.30  0.  0.  0.
232  2.31  0.  0.  0.
233  2.32  0.  0.  0.
234  2.33  0.  0.  0.
235  2.34  0.  0.  0.
236  2.35  0.  0.  0.
237  2.36  0.  0.  0.
238  2.37  0.  0.  0.
239  2.38  0.  0.  0.
240  2.39  0.  0.  0.
241  2.40  0.  0.  0.
242  2.41  0.  0.  0.
243  2.42  0.  0.  0.
244  2.43  0.  0.  0.
245  2.44  0.  0.  0.
246  2.45  0.  0.  0.
247  2.46  0.  0.  0.
248  2.47  0.  0.  0.
249  2.48  0.  0.  0.
250  2.49  0.  0.  0.
251  2.50  0.  0.  0.
252  2.51  0.  0.  0.
253  2.52  0.  0.  0.
254  2.53  0.  0.  0.
255  2.54  0.  0.  0.
256  2.55  0.  0.  0.
257  2.56  0.  0.  0.
258  2.57  0.  0.  0.
259  2.58  0.  0.  0.
260  2.59  0.  0.  0.
261  2.60  0.  0.  0.
262  2.61  0.  0.  0.
263  2.62  0.  0.  0.
264  2.63  0.  0.  0.
265  2.64  0.  0.  0.
266  2.65  0.  0.  0.
267  2.66  0.  0.  0.
268  2.67  0.  0.  0.
269  2.68  0.  0.  0.
270  2.69  0.  0.  0.
271  2.70  0.  0.  0.
272  2.71  0.  0.  0.
273  2.72  0.  0.  0.
274  2.73  0.  0.  0.
275  2.74  0.  0.  0.
276  2.75  0.  0.  0.
277  2.76  0.  0.  0.
278  2.77  0.  0.  0.
279  2.78  0.  0.  0.
280  2.79  0.  0.  0.
281  2.80  0.  0.  0.
282  2.81  0.  0.  0.
283  2.82  0.  0.  0.
284  2.83  0.  0.  0.
285  2.84  0.  0.  0.
286  2.85  0.  0.  0.
287  2.86  0.  0.  0.
288  2.87  0.  0.  0.
289  2.88  0.  0.  0.
290  2.89  0.  0.  0.
291  2.90  0.  0.  0.
292  2.91  0.  0.  0.
293  2.92  0.  0.  0.
294  2.93  0.  0.  0.
295  2.94  0.  0.  0.
296  2.95  0.  0.  0.
297  2.96  0.  0.  0.
298  2.97  0.  0.  0.
299  2.98  0.  0.  0.
300  2.99  0.  0.  0.
301  3.00  0.  0.  0.
302  3.01  0.  0.  0.
303  3.02  0.  0.  0.
304  3.03  0.  0.  0.
305  3.04  0.  0.  0.
306  3.05  0.  0.  0.
307  3.06  0.  0.  0.
308  3.07  0.  0.  0.
309  3.08  0.  0.  0.
310  3.09  0.  0.  0.
311  3.10  0.  0.  0.
312  3.11  0.  0.  0.
313  3.12  0.  0.  0.
314  3.13  0.  0.  0.
315  3.14  0.  0.  0.
316  3.15  0.  0.  0.
317  3.16  0.  0.  0.
318  3.17  0.  0.  0.
319  3.18  0.  0.  0.
320  3.19  0.  0.  0.
321  3.20  0.  0.  0.
322  3.21  0.  0.  0.
323  3.22  0.  0.  0.
324  3.23  0.  0.  0.
325  3.24  0.  0.  0.
326  3.25  0.  0.  0.
327  3.26  0.  0.  0.
328  3.27  0.  0.  0.
329  3.28  0.  0.  0.
330  3.29  0.  0.  0.
331  3.30  0.  0.  0.
332  3.31  0.  0.  0.
333  3.32  0.  0.  0.
334  3.33  0.  0.  0.
335  3.34  0.  0.  0.
336  3.35  0.  0.  0.
337  3.36  0.  0.  0.
338  3.37  0.  0.  0.
339  3.38  0.  0.  0.
340  3.39  0.  0.  0.
341  3.40  0.  0.  0.
342  3.41  0.  0.  0.
343  3.42  0.  0.  0.
344  3.43  0.  0.  0.
345  3.44  0.  0.  0.
346  3.45  0.  0.  0.
347  3.46  0.  0.  0.
348  3.47  0.  0.  0.
349  3.48  0.  0.  0.
350  3.49  0.  0.  0.
351  3.50  0.  0.  0.
352  3.51  0.  0.  0.
353  3.52  0.  0.  0.
354  3.53  0.  0.  0.
355  3.54  0.  0.  0.
356  3.55  0.  0.  0.
357  3.56  0.  0.  0.
358  3.57  0.  0.  0.
359  3.58  0.  0.  0.
360  3.59  0.  0.  0.
361  3.60  0.  0.  0.
362  3.61  0.  0.  0.
363  3.62  0.  0.  0.
364  3.63  0.  0.  0.
365  3.64  0.  0.  0.
366  3.65  0.  0.  0.
367  3.66  0.  0.  0.
368  3.67  0.  0.  0.
369  3.68  0.  0.  0.
370  3.69  0.  0.  0.
371  3.70  0.  0.  0.
372  3.71  0.  0.  0.
373  3.72  0.  0.  0.
374  3.73  0.  0.  0.
375  3.74  0.  0.  0.
376  3.75  0.  0.  0.
377  3.76  0.  0.  0.
378  3.77  0.  0.  0.
379  3.78  0.  0.  0.
380  3.79  0.  0.  0.
381  3.80  0.  0.  0.
382  3.81  0.  0.  0.
383  3.82  0.  0.  0.
384  3.83  0.  0.  0.
385  3.84  0.  0.  0.
386  3.85  0.  0.  0.
387  3.86  0.  0.  0.
388  3.87  0.  0.  0.
389  3.88  0.  0.  0.
390  3.89  0.  0.  0.
391  3.90  0.  0.  0.
392  3.91  0.  0.  0.
393  3.92  0.  0.  0.
394  3.93  0.  0.  0.
395  3.94  0.  0.  0.
396  3.95  0.  0.  0.
397  3.96  0.  0.  0.
398  3.97  0.  0.  0.
399  3.98  0.  0.  0.
400  3.99  0.  0.  0.
401  4.00  0.  0.  0.
402  4.01  0.  0.  0.
403  4.02  0.  0.  0.
404  4.03  0.  0.  0.
405  4.04  0.  0.  0.
406  4.05  0.  0.  0.
407  4.06  0.  0.  0.
408  4.07  0.  0.  0.
409  4.08  0.  0.  0.
410  4.09  0.  0.  0.
411  4.10  0.  0.  0.
412  4.11  0.  0.  0.
413  4.12  0.  0.  0.
414  4.13  0.  0.  0.
415  4.14  0.  0.  0.
416  4.15  0.  0.  0.
417  4.16  0.  0.  0.
418  4.17  0.  0.  0.
419  4.18  0.  0.  0.
420  4.19  0.  0.  0.
421  4.20  0.  0.  0.
422  4.21  0.  0.  0.
423  4.22  0.  0.  0.
424  4.23  0.  0.  0.
425  4.24  0.  0.  0.
426  4.25  0.  0.  0.
427  4.26  0.  0.  0.
428  4.27  0.  0.  0.
429  4.28  0.  0.  0.
430  4.29  0.  0.  0.
431  4.30  0.  0.  0.
432  4.31  0.  0.  0.
433  4.32  0.  0.  0.
434  4.33  0.  0.  0.
435  4.34  0.  0.  0.
436  4.35  0.  0.  0.
437  4.36  0.  0.  0.
438  4.37  0.  0.  0.
439  4.38  0.  0.  0.
440  4.39  0.  0.  0.
441  4.40  0.  0.  0.
442  4.41  0.  0.  0.
443  4.42  0.  0.  0.
444  4.43  0.  0.  0.
445  4.44  0.  0.  0.
446  4.45  0.  0.  0.
447  4.46  0.  0.  0.
448  4.47  0.  0.  0.
449  4.48  0.  0.  0.
450  4.49  0.  0.  0.
451  4.50  0.  0.  0.
452  4.51  0.  0.  0.
453  4.52  0.  0.  0.
454  4.53  0.  0.  0.
455  4.54  0.  0.  0.
456  4.55  0.  0.  0.
457  4.56  0.  0.  0.
458  4.57  0.  0.  0.
459  4.58  0.  0.  0.
460  4.59  0.  0.  0.
461  4.60  0.  0.  0.
462  4.61  0.  0.  0.
463  4.62  0.  0.  0.
464  4.63  0.  0.  0.
465  4.64  0.  0.  0.
466  4.65  0.  0.  0.
467  4.66  0.  0.  0.
468  4.67  0.  0.  0.
469  4.68  0.  0.  0.
470  4.69  0.  0.  0.
471  4.70  0.  0.  0.
472  4.71  0.  0.  0.
473  4.72  0.  0.  0.
474  4.73  0.  0.  0.
475  4.74  0.  0.  0.
476  4.75  0.  0.  0.
477  4.76  0.  0.  0.
478  4.77  0.  0.  0.
479  4.78  0.  0.  0.
480  4.79  0.  0.  0.
481  4.80  0.  0.  0.
482  4.81  0.  0.  0.
483  4.82  0.  0.  0.
484  4.83  0.  0.  0.
485  4.84  0.  0.  0.
486  4.85  0.  0.  0.
487  4.86  0.  0.  0.
488  4.87  0.  0.  0.
489  4.88  0.  0.  0.
490  4.89  0.  0.  0.
491  4.90  0.  0.  0.
492  4.91  0.  0.  0.
493  4.92  0.  0.  0.
494  4.93  0.  0.  0.
495  4.94  0.  0.  0.
496  4.95  0.  0.  0.
497  4.96  0.  0.  0.
498  4.97  0.  0.  0.
499  4.98  0.  0.  0.
500  4.99  0.  0.  0.
501  5.00  0.  0.  0.
502  5.01  0.  0.  0.
503  5.02  0.  0.  0.
504  5.03  0.  0.  0.
505  5.04  0.  0.  0.
506  5.05  0.  0.  0.
507  5.06  0.  0.  0.
508  5.07  0.  0.  0.
509  5.08  0.  0.  0.
510  5.09  0.  0.  0.
511  5.10  0.  0.  0.
512  5.11  0.  0.  0.
513  5.12  0.  0.  0.
514  5.13  0.  0.  0.
515  5.14  0.  0.  0.
516  5.15  0.  0.  0.
517  5.16  0.  0.  0.
518  5.17  0.  0.  0.
519  5.18  0.  0.  0.
520  5.19  0.  0.  0.
521  5.20  0.  0.  0.
522  5.21  0.  0.  0.
523  5.22  0.  0.  0.
524  5.23  0.  0.  0.
525  5.24  0.  0.  0.
526  5.25  0.  0.  0.
527  5.26  0.  0.  0.
528  5.27  0.  0.  0.
529  5.28  0.  0.  0.
530  5.29  0.  0.  0.
531  5.30  0.  0.  0.
532  5.31  0.  0.  0.
533  5.32  0.  0.  0.
534  5.33  0.  0.  0.
535  5.34  0.  0.  0.
536  5.35  0.  0.  0.
537  5.36  0.  0.  0.
538  5.37  0.  0.  0.
539  5.38  0.  0.  0.
540  5.39  0.  0.  0.
541  5.40  0.  0.  0.
542  5.41  0.  0.  0.
543  5.42  0.  0.  0.
544  5.43  0.  0.  0.
545  5.44  0.  0.  0.
546  5.45  0.  0.  0.
547  5.46  0.  0.  0.
548  5.47  0.  0.  0.
549  5.48  0.  0.  0.
550  5.49  0.  0.  0.
551  5.50  0.  0.  0.
552  5.51  0.  0.  0.
553  5.52  0.  0.  0.
554  5.53  0.  0.  0.
555  5.54  0.  0.  0.
556  5.55  0.  0.  0.
557  5.56  0.  0.  0.
558  5.57  0.  0.  0.
559  5.58  0.  0.  0.
560  5.59  0.  0.  0.
561  5.60  0.  0.  0.
562  5.61  0.  0.  0.
563  5.62  0.  0.  0.
564  5.63  0.  0.  0.
565  5.64  0.  0.  0.
566  5.65  0.  0.  0.
567  5.66  0.  0.  0.
568  5.67  0.  0.  0.
569  5.68  0.  0.  0.
570  5.69  0.  0.  0.
571  5.70  0.  0.  0.
572  5.71  0.  0.  0.
573  5.72  0.  0.  0.
574  5.73  0.  0.  0.
575  5.74  0.  0.  0.
576  5.75  0.  0.  0.
577  5.76  0.  0.  0.
578  5.77  0.  0.  0.
579  5.78  0.  0.  0.
580  5.79  0.  0.  0.
581  5.80  0.  0.  0.
582  5.81  0.  0.  0.
583  5.82  0.  0.  0.
584  5.83  0.  0.  0.
585  5.84  0.  0.  0.
586  5.85  0.  0.  0.
587  5.86  0.  0.  0.
588  5.87  0.  0.  0.
589  5.88  0.  0.  0.
590  5.89  0.  0.  0.
591  5.90  0.  0.  0.
592  5.91  0.  0.  0.
593  5.92  0.  0.  0.
594  5.93  0.  0.  0.
595  5.94  0.  0.  0.
596  5.95  0.  0.  0.
597  5.96  0.  0.  0.
598  5.97  0.  0.  0.
599  5.98  0.  0.  0.
600  5.99  0.  0.  0.
1                         6.3694691961327E+00  1.3841480224779E+00
1  0.0000000000000E+00  1.7656010292688E-08 -4.0256451394605E-08
2  1.0000000000000E-02  1.3415240397015E-03 -1.8093178835653E-03
3  2.0000000000000E-02  5.3420625819336E-03 -7.1841504885661E-03
4  3.0000000000000E-02  1.1930026377311E-02 -1.5966299598293E-02
5  4.0000000000000E-02  2.0987794524268E-02 -2.7895960818001E-02
6  5.0000000000000E-02  3.2354219962612E-02 -4.2617429801975E-02
7  6.0000000000000E-02  4.5828065340681E-02 -5.9686927194747E-02
8  7.0000000000000E-02  6.1172299124641E-02 -7.8582382371095E-02
9  8.0000000000000E-02  7.8119164162478E-02 -9.8714975802976E-02
10  9.0000000000000E-02  9.6375914983078E-02 -1.1944220355797E-01
11  1.0000000000000E-01  1.1563110621779E-01 -1.4008219576239E-01
12  1.1000000000000E-01  1.3556130295422E-01 -1.5992899447266E-01
13  1.2000000000000E-01  1.5583807480258E-01 -1.7826847582217E-01
14  1.3000000000000E-01  1.7613512915684E-01 -1.9439458696441E-01
15  1.4000000000000E-01  1.9613543569870E-01 -2.0762556051921E-01
16  1.5000000000000E-01  2.1553819369782E-01 -2.1731976811907E-01
17  1.6000000000000E-01  2.3406549612823E-01 -2.2289088029528E-01
18  1.7000000000000E-01  2.5146855001080E-01 -2.2382201225218E-01
19  1.8000000000000E-01  2.6753332061201E-01 -2.1967855384003E-01
20  1.9000000000000E-01  2.8208547803269E-01 -2.1011940691351E-01
21  2.0000000000000E-01  2.9499453810446E-01 -1.9490638379416E-01
22  2.1000000000000E-01  3.0617710512852E-01 -1.7391155617226E-01
23  2.2000000000000E-01  3.1559914154613E-01 -1.4712238381399E-01
24  2.3000000000000E-01  3.2327720879021E-01 -1.1464449612442E-01
25  2.4000000000000E-01  3.2927864396705E-01 -7.6702046119478E-02
26  2.5000000000000E-01  3.3372065826454E-01 -3.3635604787323E-02
27  2.6000000000000E-01  3.3676836466695E-01  1.4102386767025E-02
28  2.7000000000000E-01  3.3863176425634E-01  6.5954540561594E-02
29  2.8000000000000E-01  3.3956174166950E-01  1.2126770503652E-01
30  2.9000000000000E-01  3.3984514073940E-01  1.7930424649643E-01
31  3.0000000000000E-01  3.3979901057307E-01  2.3925522302046E-01
32  3.1000000000000E-01  3.3976412991728E-01  3.0025520511518E-01
33  3.2000000000000E-01  3.4009793328296E-01  3.6139846186297E-01
34  3.3000000000000E-01  3.4116697561426E-01  4.2175620105505E-01
35  3.4000000000000E-01  3.4333908302039E-01  4.8039452743436E-01
36  3.5000000000000E-01  3.4697534500289E-01  5.3639276523639E-01
37  3.6000000000000E-01  3.5242210852797E-01  5.8886178011735E-01
38  3.7000000000000E-01  3.6000313608937E-01  6.3696193157812E-01
39  3.8000000000000E-01  3.7001208851518E-01  6.7992029027589E-01
40  3.9000000000000E-01  3.8270548869021E-01  7.1704676516850E-01
41  4.0000000000000E-01  3.9829631464953E-01  7.4774880312551E-01
42  4.1000000000000E-01  4.1694835976977E-01  7.7154434818912E-01
43  4.2000000000000E-01  4.3877148421849E-01  7.8807277866912E-01
44  4.3000000000000E-01  4.6381786565652E-01  7.9710357716721E-01
45  4.4000000000000E-01  4.9207933870858E-01  7.9854253078986E-01
46  4.5000000000000E-01  5.2348589226200E-01  7.9243530545483E-01