Ce    ONCVPSP-4.0.1  r_core=   2.00895   1.60047   1.80388   1.40311
58.0000     12.0000      221105    zatom,zion,pspd
8      11   3     4   600     0    pspcod,pspxc,lmax,lloc,mmax,r2well
5.99000000  0.25000000  0.00000000    rchrg fchrg qchrg
3     2     2     2     0    nproj
1     1           extension_switch
0                         1.1255218173970E+01  2.4487151734600E+00  5.0481239968797E-01
1  0.0000000000000E+00 -1.1159939639072E-10  4.2631186081277E-10 -1.0043131326576E-09
2  1.0000000000000E-02  3.1176117673037E-02 -7.2475526607574E-03  1.1066555556115E-02
3  2.0000000000000E-02  6.2333321992032E-02 -1.4424471983664E-02  2.1991024143121E-02
4  3.0000000000000E-02  9.3452855303530E-02 -2.1461018586033E-02  3.2633325813048E-02
5  4.0000000000000E-02  1.2451626886402E-01 -2.8289230405167E-02  4.2857370475077E-02
6  5.0000000000000E-02  1.5550557109547E-01 -3.4843784991705E-02  5.2532992618628E-02
7  6.0000000000000E-02  1.8640336848128E-01 -4.1062830467516E-02  6.1537814507727E-02
8  7.0000000000000E-02  2.1719299678188E-01 -4.6888775207899E-02  6.9759015193401E-02
9  8.0000000000000E-02  2.4785864036056E-01 -5.2269026734128E-02  7.7094983695242E-02
10  9.0000000000000E-02  2.7838543754832E-01 -5.7156670829116E-02  8.3456835942701E-02
11  1.0000000000000E-01  3.0875957013824E-01 -6.1511082508970E-02  8.8769776525699E-02
12  1.1000000000000E-01  3.3896833528579E-01 -6.5298461193309E-02  9.2974287972964E-02
13  1.2000000000000E-01  3.6900019829797E-01 -6.8492283208903E-02  9.6027132135792E-02
14  1.3000000000000E-01  3.9884482502008E-01 -7.1073665628455E-02  9.7902150289344E-02
15  1.4000000000000E-01  4.2849309277244E-01 -7.3031636380238E-02  9.8590850751607E-02
16  1.5000000000000E-01  4.5793707904683E-01 -7.4363306557101E-02  9.8102775142818E-02
17  1.6000000000000E-01  4.8717002744307E-01 -7.5073941894827E-02  9.6465636840668E-02
18  1.7000000000000E-01  5.1618629060543E-01 -7.5176931470718E-02  9.3725227706584E-02
19  1.8000000000000E-01  5.4498125020527E-01 -7.4693652783098E-02  8.9945091740507E-02
20  1.9000000000000E-01  5.7355121430672E-01 -7.3653233500780E-02  8.5205966940287E-02
21  2.0000000000000E-01  6.0189329274322E-01 -7.2092211307073E-02  7.9604999270371E-02
22  2.1000000000000E-01  6.3000525142223E-01 -7.0054094395293E-02  7.3254735257344E-02
23  2.2000000000000E-01  6.5788534675933E-01 -6.7588826289514E-02  6.6281902298111E-02
24  2.3000000000000E-01  6.8553214171864E-01 -6.4752159755814E-02  5.8825988265585E-02
25  2.4000000000000E-01  7.1294430520178E-01 -6.1604945623687E-02  5.1037634400272E-02
26  2.5000000000000E-01  7.4012039677780E-01 -5.8212343343190E-02  4.3076857754948E-02
27  2.6000000000000E-01  7.6705863898054E-01 -5.4642961051398E-02  3.5111121594053E-02
28  2.7000000000000E-01  7.9375667961421E-01 -5.0967933801045E-02  2.7313274111092E-02
29  2.8000000000000E-01  8.2021134669949E-01 -4.7259949405039E-02  1.9859377596246E-02
30  2.9000000000000E-01  8.4641839886069E-01 -4.3592232064762E-02  1.2926451741687E-02
31  3.0000000000000E-01  8.7237227409384E-01 -4.0037494566964E-02  6.6901560907208E-03
32  3.1000000000000E-01  8.9806583996870E-01 -3.6666870351051E-02  1.3224377109501E-03
33  3.2000000000000E-01  9.2349014839777E-01 -3.3548837151607E-02 -3.0108290274304E-03
34  3.3000000000000E-01  9.4863419815519E-01 -3.0748144212388E-02 -6.1521831568933E-03
35  3.4000000000000E-01  9.7348470834431E-01 -2.8324755236585E-02 -7.9548706529122E-03
36  3.5000000000000E-01  9.9802590599453E-01 -2.6332819284641E-02 -8.2850632150194E-03
37  3.6000000000000E-01  1.0222393309153E+00 -2.4819681749833E-02 -7.0239750507305E-03
38  3.7000000000000E-01  1.0461036608478E+00 -2.3824947334531E-02 -4.0698510787229E-03
39  3.8000000000000E-01  1.0695945598322E+00 -2.3379606615380E-02  6.6019907896735E-04
40  3.9000000000000E-01  1.0926845525529E+00 -2.3505237323724E-02  7.2285456966347E-03
41  4.0000000000000E-01  1.1153429272321E+00 -2.4213290883227E-02  1.5675584984452E-02
42  4.1000000000000E-01  1.1375356694239E+00 -2.5504474043114E-02  2.6018507608549E-02
43  4.2000000000000E-01  1.1592254288032E+00 -2.7368234626202E-02  3.8250308662421E-02
44  4.3000000000000E-01  1.1803715207680E+00 -2.9782359485054E-02  5.2339055750062E-02
45  4.4000000000000E-01  1.2009299643621E+00 -3.2712691731820E-02  6.8227429304445E-02
46  4.5000000000000E-01  1.2208535576949E+00 -3.6112973190423E-02  8.5832546532632E-02
47  4.6000000000000E-01  1.2400919916835E+00 -3.9924816819102E-02  1.0504607746749E-01
48  4.7000000000000E-01  1.2585920025707E+00 -4.4077812581373E-02  1.2573465855057E-01
49  4.8000000000000E-01  1.2762975632893E+00 -4.8489768914863E-02  1.4774060599732E-01
50  4.9000000000000E-01  1.2931501133485E+00 -5.3067090574021E-02  1.7088292794084E-01
51  5.0000000000000E-01  1.3090888265152E+00 -5.7705292214531E-02  1.9495863103763E-01
52  5.1000000000000E-01  1.3240509151603E+00 -6.2289645665205E-02  2.1974431389874E-01
53  5.2000000000000E-01  1.3379719697390E+00 -6.6695957404845E-02  2.4499803640219E-01
54  5.3000000000000E-01  1.3507863314742E+00 -7.0791471345069E-02  2.7046145069198E-01
55  5.4000000000000E-01  1.3624274959314E+00 -7.4435890634688E-02  2.9586217651700E-01
56  5.5000000000000E-01  1.3728285447961E+00 -7.7482510850784E-02  3.2091640052729E-01
57  5.6000000000000E-01  1.3819226028197E+00 -7.9779455657228E-02  3.4533167628878E-01
58  5.7000000000000E-01  1.3896433165646E+00 -8.1171004791530E-02  3.6880989910642E-01
59  5.8000000000000E-01  1.3959253512814E+00 -8.1499003111907E-02  3.9105042731464E-01
60  5.9000000000000E-01  1.4007049019796E+00 -8.0604338405800E-02  4.1175331952280E-01
61  6.0000000000000E-01  1.4039202145183E+00 -7.8328474744020E-02  4.3062265542598E-01
62  6.1000000000000E-01  1.4055121123435E+00 -7.4515027370217E-02  4.4736990622835E-01
63  6.2000000000000E-01  1.4054245243464E+00 -6.9011364458159E-02  4.6171731950960E-01
64  6.3000000000000E-01  1.4036050091988E+00 -6.1670220555391E-02  4.7340128250567E-01
65  6.4000000000000E-01  1.4000052714616E+00 -5.2351306169418E-02  4.8217562729410E-01
66  6.5000000000000E-01  1.3945816647346E+00 -4.0922897749695E-02  4.8781484128241E-01
67  6.6000000000000E-01  1.3872956771539E+00 -2.7263392276690E-02  4.9011714670158E-01
68  6.7000000000000E-01  1.3781143946135E+00 -1.1262810795390E-02  4.8890741351441E-01
69  6.8000000000000E-01  1.3670109372207E+00  7.1757644809741E-03  4.8403987124814E-01
70  6.9000000000000E-01  1.3539648646694E+00  2.8134834413560E-02  4.7540058676225E-01
71  7.0000000000000E-01  1.3389625464396E+00  5.1681222827374E-02  4.6290967683908E-01
72  7.1000000000000E-01  1.3219974930007E+00  7.7864925574695E-02  4.4652322673084E-01
73  7.2000000000000E-01  1.3030706445119E+00  1.0671808137493E-01  4.2623488839280E-01
74  7.3000000000000E-01  1.2821906138633E+00  1.3825407597020E-01  4.0207713504814E-01
75  7.4000000000000E-01  1.2593738812982E+00  1.7246678994379E-01  3.7412215193997E-01
76  7.5000000000000E-01  1.2346449382743E+00  2.0932999923650E-01  3.4248234660312E-01
77  7.6000000000000E-01  1.2080363786807E+00  2.4879693598588E-01  3.0731046568402E-01
78  7.7000000000000E-01  1.1795889360008E+00  2.9080001581235E-01  2.6879930922721E-01
79  7.8000000000000E-01  1.1493514655034E+00  3.3525073610877E-01  2.2718103737706E-01
80  7.9000000000000E-01  1.1173808710566E+00  3.8203974826993E-01  1.8272606857680E-01
81  8.0000000000000E-01  1.0837419766644E+00  4.3103710514538E-01  1.3574157253677E-01
82  8.1000000000000E-01  1.0485073433439E+00  4.8209268333590E-01  8.6569565438556E-02
83  8.2000000000000E-01  1.0117570324625E+00  5.3503677829487E-01  3.5584619003001E-02
84  8.3000000000000E-01  9.7357831715002E-01  5.8968086856660E-01 -1.6808800876537E-02
85  8.4000000000000E-01  9.3406534386970E-01  6.4581854391181E-01 -7.0179346294750E-02
86  8.5000000000000E-01  8.9331874668254E-01  7.0322659055320E-01 -1.2407212687732E-01
87  8.6000000000000E-01  8.5144521715178E-01  7.6166622534346E-01 -1.7801234974813E-01
88  8.7000000000000E-01  8.0855703321262E-01  8.2088446932994E-01 -2.3150922967049E-01
89  8.8000000000000E-01  7.6477155066636E-01  8.8061564997789E-01 -2.8406013611228E-01
90  8.9000000000000E-01  7.2021066124543E-01  9.4058302023624E-01 -3.3515494131011E-01
91  9.0000000000000E-01  6.7500022143116E-01  1.0005004816935E+00 -3.8428053108384E-01
92  9.1000000000000E-01  6.2926945638679E-01  1.0600743982897E+00 -4.3092543820264E-01
93  9.2000000000000E-01  5.8315034349217E-01  1.1190054864290E+00 -4.7458455654277E-01
94  9.3000000000000E-01  5.3677698003161E-01  1.1769907668779E+00 -5.1476389311766E-01
95  9.4000000000000E-01  4.9028493959228E-01  1.2337255635459E+00 -5.5098531430645E-01
96  9.5000000000000E-01  4.4381062167819E-01  1.2889055341150E+00 -5.8279124225747E-01
97  9.6000000000000E-01  3.9749059893553E-01  1.3422287175179E+00 -6.0974925749207E-01
98  9.7000000000000E-01  3.5146096622165E-01  1.3933975834467E+00 -6.3145656416608E-01
99  9.8000000000000E-01  3.0585669553627E-01  1.4421210694013E+00 -6.4754427525145E-01
100  9.9000000000000E-01  2.6081100057565E-01  1.4881165912299E+00 -6.5768147604006E-01
101  1.0000000000000E+00  2.1645471437188E-01  1.5311120136823E+00 -6.6157902584271E-01
102  1.0100000000000E+00  1.7291568315152E-01  1.5708475681389E+00 -6.5899305949963E-01
103  1.0200000000000E+00  1.3031817919404E-01  1.6070777054036E+00 -6.4972815232849E-01
104  1.0300000000000E+00  8.8782335104276E-02  1.6395728722085E+00 -6.3364011435484E-01
105  1.0400000000000E+00  4.8423601541437E-02  1.6681212008649E+00 -6.1063838207705E-01
106  1.0500000000000E+00  9.3522300811688E-03  1.6925301022759E+00 -5.8068797857232E-01
107  1.0600000000000E+00 -2.8327217460926E-02  1.7126277532715E+00 -5.4381101542025E-01
108  1.0700000000000E+00 -6.4516332236920E-02  1.7282644699185E+00 -5.0008771267602E-01
109  1.0800000000000E+00 -9.9123293379267E-02  1.7393139590722E+00 -4.4965691594999E-01
110  1.0900000000000E+00 -1.3206327432405E-01  1.7456744409355E+00 -3.9271609251570E-01
111  1.1000000000000E+00 -1.6325882012090E-01  1.7472696357818E+00 -3.2952079127992E-01
112  1.1100000000000E+00 -1.9264019550599E-01  1.7440496082342E+00 -2.6038355439606E-01
113  1.1200000000000E+00 -2.2014570353796E-01  1.7359914625920E+00 -1.8567227131735E-01
114  1.1300000000000E+00 -2.4572197453212E-01  1.7230998826280E+00 -1.0580796918174E-01
115  1.1400000000000E+00 -2.6932422487661E-01  1.7054075090653E+00 -2.1262036655967E-02
116  1.1500000000000E+00 -2.9091648506719E-01  1.6829751475771E+00  6.7447118198508E-02
117  1.1600000000000E+00 -3.1047179596003E-01  1.6558917996662E+00  1.5975797175779E-01
118  1.1700000000000E+00 -3.2797237181381E-01  1.6242745081915E+00  2.5507034197354E-01
119  1.1800000000000E+00 -3.4340972818413E-01  1.5882680086698E+00  3.5275038578995E-01
120  1.1900000000000E+00 -3.5678477215376E-01  1.5480441768302E+00  4.5213611850648E-01
121  1.2000000000000E+00 -3.6810785174777E-01  1.5038012623198E+00  5.5254343055873E-01
122  1.2100000000000E+00 -3.7739876071857E-01  1.4557628980240E+00  6.5327256996912E-01
123  1.2200000000000E+00 -3.8468669420998E-01  1.4041768742731E+00  7.5361505010076E-01
124  1.2300000000000E+00 -3.9001015016990E-01  1.3493136673904E+00  8.5286093221431E-01
125  1.2400000000000E+00 -3.9341677080132E-01  1.2914647127043E+00  9.5030642023005E-01
126  1.2500000000000E+00 -3.9496311788447E-01  1.2309404134965E+00  1.0452616907194E+00
127  1.2600000000000E+00 -3.9471437551520E-01  1.1680678795165E+00  1.1370588642574E+00
128  1.2700000000000E+00 -3.9274397375431E-01  1.1031883919204E+00  1.2250600041178E+00
129  1.2800000000000E+00 -3.8913312694804E-01  1.0366545959833E+00  1.3086650047246E+00
130  1.2900000000000E+00 -3.8397028113135E-01  9.6882742890868E-01  1.3873192047520E+00
131  1.3000000000000E+00 -3.7735046608036E-01  9.0007279791103E-01  1.4605205273880E+00
132  1.3100000000000E+00 -3.6937454932748E-01  8.3075803366784E-01  1.5278259128900E+00
133  1.3200000000000E+00 -3.6014839190227E-01  7.6124815657994E-01  1.5888567654250E+00
134  1.3300000000000E+00 -3.4978190888168E-01  6.9190200855386E-01  1.6433030861625E+00
135  1.3400000000000E+00 -3.3838804212569E-01  6.2306832145000E-01  1.6909259075392E+00
136  1.3500000000000E+00 -3.2608165802900E-01  5.5508181550998E-01  1.7315575782732E+00
137  1.3600000000000E+00 -3.1297838986808E-01  4.8825944730672E-01  1.7650993746313E+00
138  1.3700000000000E+00 -2.9919345264282E-01  4.2289695789737E-01  1.7915158288508E+00
139  1.3800000000000E+00 -2.8484046825163E-01  3.5926590785455E-01  1.8108250673745E+00
140  1.3900000000000E+00 -2.7003035081896E-01  2.9761142846798E-01  1.8230843319674E+00
141  1.4000000000000E+00 -2.5487031900809E-01  2.3815097723958E-01  1.8283700957877E+00
142  1.4100000000000E+00 -2.3946311016450E-01  1.8107441310480E-01  1.8267510059000E+00
143  1.4200000000000E+00 -2.2390684904802E-01  1.2654719977281E-01  1.8182914266581E+00
144  1.4300000000000E+00 -2.0829535692810E-01  7.4714443203584E-02  1.8030960013219E+00
145  1.4400000000000E+00 -1.9271794331741E-01  2.5701339565158E-02  1.7813214407964E+00
146  1.4500000000000E+00 -1.7725905855222E-01 -2.0387187062180E-02  1.7531740958259E+00
147  1.4600000000000E+00 -1.6199799689754E-01 -6.3466638039963E-02  1.7189076353710E+00
148  1.4700000000000E+00 -1.4700864347240E-01 -1.0347292690715E-01  1.6788202523090E+00
149  1.4800000000000E+00 -1.3235926638384E-01 -1.4036219998838E-01  1.6332514953808E+00
150  1.4900000000000E+00 -1.1811235410812E-01 -1.7411049745746E-01  1.5825787584043E+00
151  1.5000000000000E+00 -1.0432449776034E-01 -2.0471326264784E-01  1.5272134608767E+00
152  1.5100000000000E+00 -9.1046317522881E-02 -2.3218470851913E-01  1.4675969571861E+00
153  1.5200000000000E+00 -7.8322432159118E-02 -2.5655705120535E-01  1.4041962141389E+00
154  1.5300000000000E+00 -6.6191470217187E-02 -2.7787962150894E-01  1.3374992990538E+00
155  1.5400000000000E+00 -5.4686121237830E-02 -2.9621786601034E-01  1.2680107222659E+00
156  1.5500000000000E+00 -4.3833225012793E-02 -3.1165225017646E-01  1.1962466794329E+00
157  1.5600000000000E+00 -3.3653896698829E-02 -3.2427707645310E-01  1.1227302401111E+00
158  1.5700000000000E+00 -2.4163685384964E-02 -3.3419923076631E-01  1.0479865292520E+00
159  1.5800000000000E+00 -1.5372763522249E-02 -3.4153687122556E-01  9.7253794861819E-01
160  1.5900000000000E+00 -7.2861444762092E-03 -3.4641807299567E-01  8.9689948434836E-01
161  1.6000000000000E+00  9.6074666468598E-05 -3.4897944339632E-01  8.2157414614932E-01
162  1.6100000000000E+00  6.7784479927747E-03 -3.4936472118224E-01  7.4704858189573E-01
163  1.6200000000000E+00  1.2769896386786E-02 -3.4772337378837E-01  6.7378890981734E-01
164  1.6300000000000E+00  1.8083406936358E-02 -3.4420920595344E-01  6.0223680790786E-01
165  1.6400000000000E+00  2.2735719179175E-02 -3.3897899265225E-01  5.3280589740791E-01
166  1.6500000000000E+00  2.6747001225812E-02 -3.3219114870474E-01  4.6587845433067E-01
167  1.6600000000000E+00  3.0140518736732E-02 -3.2400444667933E-01  4.0180247930568E-01
168  1.6700000000000E+00  3.2942299645886E-02 -3.1457679386953E-01  3.4088915220125E-01
169  1.6800000000000E+00  3.5180797429124E-02 -3.0406407825029E-01  2.8341069423880E-01
170  1.6900000000000E+00  3.6886555569646E-02 -2.9261909223366E-01  2.2959865564762E-01
171  1.7000000000000E+00  3.8091875734324E-02 -2.8039054200994E-01  1.7964264278147E-01
172  1.7100000000000E+00  3.8830491990408E-02 -2.6752214904696E-01  1.3368949374953E-01
173  1.7200000000000E+00  3.9137253219140E-02 -2.5415184917490E-01  9.1842907248378E-02
174  1.7300000000000E+00  3.9047815669859E-02 -2.4041109339370E-01  5.4163524350139E-02
175  1.7400000000000E+00  3.8598347382073E-02 -2.2642425326296E-01  2.0669458281487E-02
176  1.7500000000000E+00  3.7825245996770E-02 -2.1230813252513E-01 -8.6627371164560E-03
177  1.7600000000000E+00  3.6764871238124E-02 -1.9817158529241E-01 -3.3896674321599E-02
178  1.7700000000000E+00  3.5453293109269E-02 -1.8411523985549E-01 -5.5134332969259E-02
179  1.7800000000000E+00  3.3926056643780E-02 -1.7023132607161E-01 -7.2513876831267E-02
180  1.7900000000000E+00  3.2217963789740E-02 -1.5660360297975E-01 -8.6207113660711E-02
181  1.8000000000000E+00  3.0362872819795E-02 -1.4330738233819E-01 -9.6416627676818E-02
182  1.8100000000000E+00  2.8393515409441E-02 -1.3040964260678E-01 -1.0337261830473E-01
183  1.8200000000000E+00  2.6341331353501E-02 -1.1796922706917E-01 -1.0732948129861E-01
184  1.8300000000000E+00  2.4236320689728E-02 -1.0603711889854E-01 -1.0856217109015E-01
185  1.8400000000000E+00  2.2106912810484E-02 -9.4656785176107E-02 -1.0736238550974E-01
186  1.8500000000000E+00  1.9979852003908E-02 -8.3864581307074E-02 -1.0403461548641E-01
187  1.8600000000000E+00  1.7880098718025E-02 -7.3690206730734E-02 -9.8892103690574E-02
188  1.8700000000000E+00  1.5830746769843E-02 -6.4157204816549E-02 -9.2252753673483E-02
189  1.8800000000000E+00  1.3852954879299E-02 -5.5283495598887E-02 -8.4435036672326E-02
190  1.8900000000000E+00  1.1965816442860E-02 -4.7081759404696E-02 -7.5754176435923E-02
191  1.9000000000000E+00  1.0186669244017E-02 -3.9560813405052E-02 -6.6517077417379E-02
192  1.9100000000000E+00  8.5287966407410E-03 -3.2720988487912E-02 -5.7025616178403E-02
193  1.9200000000000E+00  6.9844607031034E-03 -2.6515882566377E-02 -4.7625833169296E-02
194  1.9300000000000E+00  5.5554015857299E-03 -2.0922812770204E-02 -3.8608954601186E-02
195  1.9400000000000E+00  4.2640654451223E-03 -1.5969062445321E-02 -3.0173277741131E-02
196  1.9500000000000E+00  3.1263610691428E-03 -1.1669948525464E-02 -2.2506696285116E-02
197  1.9600000000000E+00  2.1551829445081E-03 -8.0373325722285E-03 -1.5773008842213E-02
198  1.9700000000000E+00  1.3598697677532E-03 -5.0787586631884E-03 -1.0111363654007E-02
199  1.9800000000000E+00  7.4648826152857E-04 -2.7988654047942E-03 -5.6365529415036E-03
200  1.9900000000000E+00  3.1494048640712E-04 -1.1883367866895E-03 -2.4140644930236E-03
201  2.0000000000000E+00  7.2756988759562E-05 -2.7729904330506E-04 -5.6811086411066E-04
202  2.0100000000000E+00 -2.8558512263971E-06  1.0662814284968E-05  2.0044081488662E-05
203  2.0200000000000E+00 -1.0711840304479E-06  4.1089737168091E-06  8.3096676572225E-06
204  2.03  0. -0. -0.
205  2.04 -0.  0.  0.
206  2.05  0. -0.  0.
207  2.06  0.  0.  0.
208  2.07  0.  0.  0.
209  2.08  0.  0.  0.
210  2.09  0.  0.  0.
211  2.10  0.  0.  0.
212  2.11  0.  0.  0.
213  2.12  0.  0.  0.
214  2.13  0.  0.  0.
215  2.14  0.  0.  0.
216  2.15  0.  0.  0.
217  2.16  0.  0.  0.
218  2.17  0.  0.  0.
219  2.18  0.  0.  0.
220  2.19  0.  0.  0.
221  2.20  0.  0.  0.
222  2.21  0.  0.  0.
223  2.22  0.  0.  0.
224  2.23  0.  0.  0.
225  2.24  0.  0.  0.
226  2.25  0.  0.  0.
227  2.26  0.  0.  0.
228  2.27  0.  0.  0.
229  2.28  0.  0.  0.
230  2.29  0.  0.  0.
231  2.30  0.  0.  0.
232  2.31  0.  0.  0.
233  2.32  0.  0.  0.
234  2.33  0.  0.  0.
235  2.34  0.  0.  0.
236  2.35  0.  0.  0.
237  2.36  0.  0.  0.
238  2.37  0.  0.  0.
239  2.38  0.  0.  0.
240  2.39  0.  0.  0.
241  2.40  0.  0.  0.
242  2.41  0.  0.  0.
243  2.42  0.  0.  0.
244  2.43  0.  0.  0.
245  2.44  0.  0.  0.
246  2.45  0.  0.  0.
247  2.46  0.  0.  0.
248  2.47  0.  0.  0.
249  2.48  0.  0.  0.
250  2.49  0.  0.  0.
251  2.50  0.  0.  0.
252  2.51  0.  0.  0.
253  2.52  0.  0.  0.
254  2.53  0.  0.  0.
255  2.54  0.  0.  0.
256  2.55  0.  0.  0.
257  2.56  0.  0.  0.
258  2.57  0.  0.  0.
259  2.58  0.  0.  0.
260  2.59  0.  0.  0.
261  2.60  0.  0.  0.
262  2.61  0.  0.  0.
263  2.62  0.  0.  0.
264  2.63  0.  0.  0.
265  2.64  0.  0.  0.
266  2.65  0.  0.  0.
267  2.66  0.  0.  0.
268  2.67  0.  0.  0.
269  2.68  0.  0.  0.
270  2.69  0.  0.  0.
271  2.70  0.  0.  0.
272  2.71  0.  0.  0.
273  2.72  0.  0.  0.
274  2.73  0.  0.  0.
275  2.74  0.  0.  0.
276  2.75  0.  0.  0.
277  2.76  0.  0.  0.
278  2.77  0.  0.  0.
279  2.78  0.  0.  0.
280  2.79  0.  0.  0.
281  2.80  0.  0.  0.
282  2.81  0.  0.  0.
283  2.82  0.  0.  0.
284  2.83  0.  0.  0.
285  2.84  0.  0.  0.
286  2.85  0.  0.  0.
287  2.86  0.  0.  0.
288  2.87  0.  0.  0.
289  2.88  0.  0.  0.
290  2.89  0.  0.  0.
291  2.90  0.  0.  0.
292  2.91  0.  0.  0.
293  2.92  0.  0.  0.
294  2.93  0.  0.  0.
295  2.94  0.  0.  0.
296  2.95  0.  0.  0.
297  2.96  0.  0.  0.
298  2.97  0.  0.  0.
299  2.98  0.  0.  0.
300  2.99  0.  0.  0.
301  3.00  0.  0.  0.
302  3.01  0.  0.  0.
303  3.02  0.  0.  0.
304  3.03  0.  0.  0.
305  3.04  0.  0.  0.
306  3.05  0.  0.  0.
307  3.06  0.  0.  0.
308  3.07  0.  0.  0.
309  3.08  0.  0.  0.
310  3.09  0.  0.  0.
311  3.10  0.  0.  0.
312  3.11  0.  0.  0.
313  3.12  0.  0.  0.
314  3.13  0.  0.  0.
315  3.14  0.  0.  0.
316  3.15  0.  0.  0.
317  3.16  0.  0.  0.
318  3.17  0.  0.  0.
319  3.18  0.  0.  0.
320  3.19  0.  0.  0.
321  3.20  0.  0.  0.
322  3.21  0.  0.  0.
323  3.22  0.  0.  0.
324  3.23  0.  0.  0.
325  3.24  0.  0.  0.
326  3.25  0.  0.  0.
327  3.26  0.  0.  0.
328  3.27  0.  0.  0.
329  3.28  0.  0.  0.
330  3.29  0.  0.  0.
331  3.30  0.  0.  0.
332  3.31  0.  0.  0.
333  3.32  0.  0.  0.
334  3.33  0.  0.  0.
335  3.34  0.  0.  0.
336  3.35  0.  0.  0.
337  3.36  0.  0.  0.
338  3.37  0.  0.  0.
339  3.38  0.  0.  0.
340  3.39  0.  0.  0.
341  3.40  0.  0.  0.
342  3.41  0.  0.  0.
343  3.42  0.  0.  0.
344  3.43  0.  0.  0.
345  3.44  0.  0.  0.
346  3.45  0.  0.  0.
347  3.46  0.  0.  0.
348  3.47  0.  0.  0.
349  3.48  0.  0.  0.
350  3.49  0.  0.  0.
351  3.50  0.  0.  0.
352  3.51  0.  0.  0.
353  3.52  0.  0.  0.
354  3.53  0.  0.  0.
355  3.54  0.  0.  0.
356  3.55  0.  0.  0.
357  3.56  0.  0.  0.
358  3.57  0.  0.  0.
359  3.58  0.  0.  0.
360  3.59  0.  0.  0.
361  3.60  0.  0.  0.
362  3.61  0.  0.  0.
363  3.62  0.  0.  0.
364  3.63  0.  0.  0.
365  3.64  0.  0.  0.
366  3.65  0.  0.  0.
367  3.66  0.  0.  0.
368  3.67  0.  0.  0.
369  3.68  0.  0.  0.
370  3.69  0.  0.  0.
371  3.70  0.  0.  0.
372  3.71  0.  0.  0.
373  3.72  0.  0.  0.
374  3.73  0.  0.  0.
375  3.74  0.  0.  0.
376  3.75  0.  0.  0.
377  3.76  0.  0.  0.
378  3.77  0.  0.  0.
379  3.78  0.  0.  0.
380  3.79  0.  0.  0.
381  3.80  0.  0.  0.
382  3.81  0.  0.  0.
383  3.82  0.  0.  0.
384  3.83  0.  0.  0.
385  3.84  0.  0.  0.
386  3.85  0.  0.  0.
387  3.86  0.  0.  0.
388  3.87  0.  0.  0.
389  3.88  0.  0.  0.
390  3.89  0.  0.  0.
391  3.90  0.  0.  0.
392  3.91  0.  0.  0.
393  3.92  0.  0.  0.
394  3.93  0.  0.  0.
395  3.94  0.  0.  0.
396  3.95  0.  0.  0.
397  3.96  0.  0.  0.
398  3.97  0.  0.  0.
399  3.98  0.  0.  0.
400  3.99  0.  0.  0.
401  4.00  0.  0.  0.
402  4.01  0.  0.  0.
403  4.02  0.  0.  0.
404  4.03  0.  0.  0.
405  4.04  0.  0.  0.
406  4.05  0.  0.  0.
407  4.06  0.  0.  0.
408  4.07  0.  0.  0.
409  4.08  0.  0.  0.
410  4.09  0.  0.  0.
411  4.10  0.  0.  0.
412  4.11  0.  0.  0.
413  4.12  0.  0.  0.
414  4.13  0.  0.  0.
415  4.14  0.  0.  0.
416  4.15  0.  0.  0.
417  4.16  0.  0.  0.
418  4.17  0.  0.  0.
419  4.18  0.  0.  0.
420  4.19  0.  0.  0.
421  4.20  0.  0.  0.
422  4.21  0.  0.  0.
423  4.22  0.  0.  0.
424  4.23  0.  0.  0.
425  4.24  0.  0.  0.
426  4.25  0.  0.  0.
427  4.26  0.  0.  0.
428  4.27  0.  0.  0.
429  4.28  0.  0.  0.
430  4.29  0.  0.  0.
431  4.30  0.  0.  0.
432  4.31  0.  0.  0.
433  4.32  0.  0.  0.
434  4.33  0.  0.  0.
435  4.34  0.  0.  0.
436  4.35  0.  0.  0.
437  4.36  0.  0.  0.
438  4.37  0.  0.  0.
439  4.38  0.  0.  0.
440  4.39  0.  0.  0.
441  4.40  0.  0.  0.
442  4.41  0.  0.  0.
443  4.42  0.  0.  0.
444  4.43  0.  0.  0.
445  4.44  0.  0.  0.
446  4.45  0.  0.  0.
447  4.46  0.  0.  0.
448  4.47  0.  0.  0.
449  4.48  0.  0.  0.
450  4.49  0.  0.  0.
451  4.50  0.  0.  0.
452  4.51  0.  0.  0.
453  4.52  0.  0.  0.
454  4.53  0.  0.  0.
455  4.54  0.  0.  0.
456  4.55  0.  0.  0.
457  4.56  0.  0.  0.
458  4.57  0.  0.  0.
459  4.58  0.  0.  0.
460  4.59  0.  0.  0.
461  4.60  0.  0.  0.
462  4.61  0.  0.  0.
463  4.62  0.  0.  0.
464  4.63  0.  0.  0.
465  4.64  0.  0.  0.
466  4.65  0.  0.  0.
467  4.66  0.  0.  0.
468  4.67  0.  0.  0.
469  4.68  0.  0.  0.
470  4.69  0.  0.  0.
471  4.70  0.  0.  0.
472  4.71  0.  0.  0.
473  4.72  0.  0.  0.
474  4.73  0.  0.  0.
475  4.74  0.  0.  0.
476  4.75  0.  0.  0.
477  4.76  0.  0.  0.
478  4.77  0.  0.  0.
479  4.78  0.  0.  0.
480  4.79  0.  0.  0.
481  4.80  0.  0.  0.
482  4.81  0.  0.  0.
483  4.82  0.  0.  0.
484  4.83  0.  0.  0.
485  4.84  0.  0.  0.
486  4.85  0.  0.  0.
487  4.86  0.  0.  0.
488  4.87  0.  0.  0.
489  4.88  0.  0.  0.
490  4.89  0.  0.  0.
491  4.90  0.  0.  0.
492  4.91  0.  0.  0.
493  4.92  0.  0.  0.
494  4.93  0.  0.  0.
495  4.94  0.  0.  0.
496  4.95  0.  0.  0.
497  4.96  0.  0.  0.
498  4.97  0.  0.  0.
499  4.98  0.  0.  0.
500  4.99  0.  0.  0.
501  5.00  0.  0.  0.
502  5.01  0.  0.  0.
503  5.02  0.  0.  0.
504  5.03  0.  0.  0.
505  5.04  0.  0.  0.
506  5.05  0.  0.  0.
507  5.06  0.  0.  0.
508  5.07  0.  0.  0.
509  5.08  0.  0.  0.
510  5.09  0.  0.  0.
511  5.10  0.  0.  0.
512  5.11  0.  0.  0.
513  5.12  0.  0.  0.
514  5.13  0.  0.  0.
515  5.14  0.  0.  0.
516  5.15  0.  0.  0.
517  5.16  0.  0.  0.
518  5.17  0.  0.  0.
519  5.18  0.  0.  0.
520  5.19  0.  0.  0.
521  5.20  0.  0.  0.
522  5.21  0.  0.  0.
523  5.22  0.  0.  0.
524  5.23  0.  0.  0.
525  5.24  0.  0.  0.
526  5.25  0.  0.  0.
527  5.26  0.  0.  0.
528  5.27  0.  0.  0.
529  5.28  0.  0.  0.
530  5.29  0.  0.  0.
531  5.30  0.  0.  0.
532  5.31  0.  0.  0.
533  5.32  0.  0.  0.
534  5.33  0.  0.  0.
535  5.34  0.  0.  0.
536  5.35  0.  0.  0.
537  5.36  0.  0.  0.
538  5.37  0.  0.  0.
539  5.38  0.  0.  0.
540  5.39  0.  0.  0.
541  5.40  0.  0.  0.
542  5.41  0.  0.  0.
543  5.42  0.  0.  0.
544  5.43  0.  0.  0.
545  5.44  0.  0.  0.
546  5.45  0.  0.  0.
547  5.46  0.  0.  0.
548  5.47  0.  0.  0.
549  5.48  0.  0.  0.
550  5.49  0.  0.  0.
551  5.50  0.  0.  0.
552  5.51  0.  0.  0.
553  5.52  0.  0.  0.
554  5.53  0.  0.  0.
555  5.54  0.  0.  0.
556  5.55  0.  0.  0.
557  5.56  0.  0.  0.
558  5.57  0.  0.  0.
559  5.58  0.  0.  0.
560  5.59  0.  0.  0.
561  5.60  0.  0.  0.
562  5.61  0.  0.  0.
563  5.62  0.  0.  0.
564  5.63  0.  0.  0.
565  5.64  0.  0.  0.
566  5.65  0.  0.  0.
567  5.66  0.  0.  0.
568  5.67  0.  0.  0.
569  5.68  0.  0.  0.
570  5.69  0.  0.  0.
571  5.70  0.  0.  0.
572  5.71  0.  0.  0.
573  5.72  0.  0.  0.
574  5.73  0.  0.  0.
575  5.74  0.  0.  0.
576  5.75  0.  0.  0.
577  5.76  0.  0.  0.
578  5.77  0.  0.  0.
579  5.78  0.  0.  0.
580  5.79  0.  0.  0.
581  5.80  0.  0.  0.
582  5.81  0.  0.  0.
583  5.82  0.  0.  0.
584  5.83  0.  0.  0.
585  5.84  0.  0.  0.
586  5.85  0.  0.  0.
587  5.86  0.  0.  0.
588  5.87  0.  0.  0.
589  5.88  0.  0.  0.
590  5.89  0.  0.  0.
591  5.90  0.  0.  0.
592  5.91  0.  0.  0.
593  5.92  0.  0.  0.
594  5.93  0.  0.  0.
595  5.94  0.  0.  0.
596  5.95  0.  0.  0.
597  5.96  0.  0.  0.
598  5.97  0.  0.  0.
599  5.98  0.  0.  0.
600  5.99  0.  0.  0.
1                         6.3694691952430E+00  1.3841480215000E+00
1  0.0000000000000E+00  1.7655870626632E-08 -4.0256098551850E-08
2  1.0000000000000E-02  1.3415240394462E-03 -1.8093178837150E-03
3  2.0000000000000E-02  5.3420625809225E-03 -7.1841504891682E-03
4  3.0000000000000E-02  1.1930026375069E-02 -1.5966299599644E-02
5  4.0000000000000E-02  2.0987794520374E-02 -2.7895960820421E-02
6  5.0000000000000E-02  3.2354219956705E-02 -4.2617429805775E-02
7  6.0000000000000E-02  4.5828065332485E-02 -5.9686927200259E-02
8  7.0000000000000E-02  6.1172299113974E-02 -7.8582382378661E-02
9  8.0000000000000E-02  7.8119164149264E-02 -9.8714975812947E-02
10  9.0000000000000E-02  9.6375914967365E-02 -1.1944220357072E-01
11  1.0000000000000E-01  1.1563110619974E-01 -1.4008219577830E-01
12  1.1000000000000E-01  1.3556130293414E-01 -1.5992899449215E-01
13  1.2000000000000E-01  1.5583807478090E-01 -1.7826847584565E-01
14  1.3000000000000E-01  1.7613512913412E-01 -1.9439458699233E-01
15  1.4000000000000E-01  1.9613543567563E-01 -2.0762556055203E-01
16  1.5000000000000E-01  2.1553819367519E-01 -2.1731976815727E-01
17  1.6000000000000E-01  2.3406549610697E-01 -2.2289088033937E-01
18  1.7000000000000E-01  2.5146854999190E-01 -2.2382201230267E-01
19  1.8000000000000E-01  2.6753332059655E-01 -2.1967855389746E-01
20  1.9000000000000E-01  2.8208547802183E-01 -2.1011940697842E-01
21  2.0000000000000E-01  2.9499453809939E-01 -1.9490638386711E-01
22  2.1000000000000E-01  3.0617710513044E-01 -1.7391155625383E-01
23  2.2000000000000E-01  3.1559914155626E-01 -1.4712238390475E-01
24  2.3000000000000E-01  3.2327720880973E-01 -1.1464449622494E-01
25  2.4000000000000E-01  3.2927864399712E-01 -7.6702046230342E-02
26  2.5000000000000E-01  3.3372065830621E-01 -3.3635604909102E-02
27  2.6000000000000E-01  3.3676836472123E-01  1.4102386633770E-02
28  2.7000000000000E-01  3.3863176432410E-01  6.5954540416313E-02
29  2.8000000000000E-01  3.3956174175148E-01  1.2126770487868E-01
30  2.9000000000000E-01  3.3984514083622E-01  1.7930424632553E-01
31  3.0000000000000E-01  3.3979901068516E-01  2.3925522283602E-01
32  3.1000000000000E-01  3.3976413004493E-01  3.0025520491675E-01
33  3.2000000000000E-01  3.4009793342626E-01  3.6139846165014E-01
34  3.3000000000000E-01  3.4116697577310E-01  4.2175620082746E-01
35  3.4000000000000E-01  3.4333908319451E-01  4.8039452719168E-01
36  3.5000000000000E-01  3.4697534519181E-01  5.3639276497835E-01
37  3.6000000000000E-01  3.5242210873105E-01  5.8886177984372E-01
38  3.7000000000000E-01  3.6000313630579E-01  6.3696193128876E-01
39  3.8000000000000E-01  3.7001208874395E-01  6.7992028997068E-01
40  3.9000000000000E-01  3.8270548893018E-01  7.1704676484741E-01
41  4.0000000000000E-01  3.9829631489945E-01  7.4774880278855E-01
42  4.1000000000000E-01  4.1694836002825E-01  7.7154434783639E-01
43  4.2000000000000E-01  4.3877148448406E-01  7.8807277830077E-01
44  4.3000000000000E-01  4.6381786592763E-01  7.9710357678346E-01
45  4.4000000000000E-01  4.9207933898366E-01  7.9854253039099E-01
46  4.5000000000000E-01  5.2348589253945E-01  7.9243530504120E-01