Tm    ONCVPSP-4.0.1  r_core=   2.00859   1.60017   1.90331   1.30568
69.0000     23.0000      241104    zatom,zion,pspd
8      11   3     4   600     0    pspcod,pspxc,lmax,lloc,mmax,r2well
5.99000000  4.00000000  0.00000000    rchrg fchrg qchrg
3     2     2     2     0    nproj
1     1           extension_switch
0                         1.2280921898456E+01  3.1736509463977E+00  6.1364034221037E-01
1  0.0000000000000E+00 -8.9841428740911E-10  1.8114397759561E-09 -2.7259124402157E-09
2  1.0000000000000E-02  6.4015853807392E-02 -2.8748073982236E-02  5.1527154658723E-02
3  2.0000000000000E-02  1.2782035227494E-01 -5.7164925894439E-02  1.0254749420499E-01
4  3.0000000000000E-02  1.9120393499780E-01 -8.4922943335350E-02  1.5255985221458E-01
5  4.0000000000000E-02  2.5396061117374E-01 -1.1170169179651E-01  2.0107429594328E-01
6  5.0000000000000E-02  3.1588969396687E-01 -1.3719140046192E-01  2.4761758462536E-01
7  6.0000000000000E-02  3.7679747498981E-01 -1.6109632552891E-01  2.9173843947308E-01
8  7.0000000000000E-02  4.3649882000943E-01 -1.8313795237148E-01  3.3301256584175E-01
9  8.0000000000000E-02  4.9481866787941E-01 -2.0305799967906E-01  3.7104737075039E-01
10  9.0000000000000E-02  5.5159341580793E-01 -2.2062119093166E-01  4.0548632230268E-01
11  1.0000000000000E-01  6.0667217536832E-01 -2.3561776119435E-01  4.3601290150179E-01
12  1.1000000000000E-01  6.5991788513976E-01 -2.4786567020019E-01  4.6235410145280E-01
13  1.2000000000000E-01  7.1120826750994E-01 -2.5721249601150E-01  4.8428343395461E-01
14  1.3000000000000E-01  7.6043661896180E-01 -2.6353698716709E-01  5.0162340894317E-01
15  1.4000000000000E-01  8.0751242508439E-01 -2.6675025510106E-01  5.1424745810621E-01
16  1.5000000000000E-01  8.5236179357163E-01 -2.6679659271348E-01  5.2208128018175E-01
17  1.6000000000000E-01  8.9492770057968E-01 -2.6365390924044E-01  5.2510359191374E-01
18  1.7000000000000E-01  9.3517004798160E-01 -2.5733377596694E-01  5.2334627530198E-01
19  1.8000000000000E-01  9.7306553126167E-01 -2.4788108179774E-01  5.1689391857440E-01
20  1.9000000000000E-01  1.0086073200068E+00 -2.3537330220423E-01  5.0588275515800E-01
21  2.0000000000000E-01  1.0418045551540E+00 -2.1991938954655E-01  4.9049901175500E-01
22  2.1000000000000E-01  1.0726816693162E+00 -2.0165829718020E-01  4.7097668336701E-01
23  2.2000000000000E-01  1.1012775386068E+00 -1.8075715404662E-01  4.4759475968075E-01
24  2.3000000000000E-01  1.1276444763967E+00 -1.5740911056663E-01  4.2067393355717E-01
25  2.4000000000000E-01  1.1518470813339E+00 -1.3183088055755E-01  3.9057282838208E-01
26  2.5000000000000E-01  1.1739609537256E+00 -1.0426000753626E-01  3.5768378667499E-01
27  2.6000000000000E-01  1.1940712959879E+00 -7.4951887101890E-02  3.2242826753912E-01
28  2.7000000000000E-01  1.2122714143052E+00 -4.4176580081571E-02  2.8525190522156E-01
29  2.8000000000000E-01  1.2286611398827E+00 -1.2215453726157E-02  2.4661928516926E-01
30  2.9000000000000E-01  1.2433451892049E+00  2.0642309568441E-02  2.0700849747024E-01
31  3.0000000000000E-01  1.2564314835221E+00  5.4103294792697E-02  1.6690553041651E-01
32  3.1000000000000E-01  1.2680294483607E+00  8.7873485611366E-02  1.2679856906993E-01
33  3.2000000000000E-01  1.2782483141821E+00  1.2166190112102E-01  8.7172265134208E-02
34  3.3000000000000E-01  1.2871954393937E+00  1.5518419450222E-01  4.8502045103804E-02
35  3.4000000000000E-01  1.2949746767456E+00  1.8816617021190E-01  1.1248523563608E-02
36  3.5000000000000E-01  1.3016848037155E+00  2.2034717709071E-01 -2.4147912353925E-02
37  3.6000000000000E-01  1.3074180368098E+00  2.5148333599964E-01 -5.7272282987436E-02
38  3.7000000000000E-01  1.3122586487834E+00  2.8135056233554E-01 -8.7739898672063E-02
39  3.8000000000000E-01  1.3162817066217E+00  3.0974734599246E-01 -1.1520088593704E-01
40  3.9000000000000E-01  1.3195519467417E+00  3.3649725401568E-01 -1.3934430239049E-01
41  4.0000000000000E-01  1.3221228022730E+00  3.6145112430572E-01 -1.5990178982253E-01
42  4.1000000000000E-01  1.3240355954877E+00  3.8448892224596E-01 -1.7665072020995E-01
43  4.2000000000000E-01  1.3253189064832E+00  4.0552123600228E-01 -1.8941679502439E-01
44  4.3000000000000E-01  1.3259881271043E+00  4.2449039044328E-01 -1.9807606448471E-01
45  4.4000000000000E-01  1.3260452068449E+00  4.4137116409917E-01 -2.0255634007253E-01
46  4.5000000000000E-01  1.3254785951227E+00  4.5617109827409E-01 -2.0283798068620E-01
47  4.6000000000000E-01  1.3242633818956E+00  4.6893039228852E-01 -1.9895404015289E-01
48  4.7000000000000E-01  1.3223616361261E+00  4.7972138380198E-01 -1.9098977137105E-01
49  4.8000000000000E-01  1.3197229391138E+00  4.8864761819268E-01 -1.7908149003110E-01
50  4.9000000000000E-01  1.3162851072527E+00  4.9584251598688E-01 -1.6341480856497E-01
51  5.0000000000000E-01  1.3119750963502E+00  5.0146765227667E-01 -1.4422225861713E-01
52  5.1000000000000E-01  1.3067100773040E+00  5.0571066687715E-01 -1.2178032781369E-01
53  5.2000000000000E-01  1.3003986706977E+00  5.0878282859670E-01 -9.6405943848280E-02
54  5.3000000000000E-01  1.2929423257841E+00  5.1091628135983E-01 -6.8452445800947E-02
55  5.4000000000000E-01  1.2842368273911E+00  5.1236100398234E-01 -3.8305089082215E-02
56  5.5000000000000E-01  1.2741739125490E+00  5.1338151909678E-01 -6.3761363635424E-03
57  5.6000000000000E-01  1.2626429771154E+00  5.1425339000865E-01  2.6900407769317E-02
58  5.7000000000000E-01  1.2495328513890E+00  5.1525954709358E-01  6.1074355980916E-02
59  5.8000000000000E-01  1.2347336226767E+00  5.1668648767544E-01  9.5685124715345E-02
60  5.9000000000000E-01  1.2181384820216E+00  5.1882039512850E-01  1.3026767841816E-01
61  6.0000000000000E-01  1.1996455718313E+00  5.2194322418693E-01  1.6435855939584E-01
62  6.1000000000000E-01  1.1791598109675E+00  5.2632880011388E-01  1.9750192972986E-01
63  6.2000000000000E-01  1.1565946739791E+00  5.3223897945551E-01  2.2925555103454E-01
64  6.3000000000000E-01  1.1318739015843E+00  5.3991991958703E-01  2.5919662812138E-01
65  6.4000000000000E-01  1.1049331202216E+00  5.4959850314380E-01  2.8692744382156E-01
66  6.5000000000000E-01  1.0757213494980E+00  5.6147896173742E-01  3.1208071430780E-01
67  6.6000000000000E-01  1.0442023776458E+00  5.7573974109826E-01  3.3432459723338E-01
68  6.7000000000000E-01  1.0103559866459E+00  5.9253064699324E-01  3.5336728883297E-01
69  6.8000000000000E-01  9.7417901046410E-01  6.1197030797124E-01  3.6896115076985E-01
70  6.9000000000000E-01  9.3568621186020E-01  6.3414398723252E-01  3.8090631290875E-01
71  7.0000000000000E-01  8.9491096543038E-01  6.5910177174807E-01  3.8905370428408E-01
72  7.1000000000000E-01  8.5190573691612E-01  6.8685716222948E-01  3.9330747123875E-01
73  7.2000000000000E-01  8.0674235131592E-01  7.1738608272003E-01  3.9362674895758E-01
74  7.3000000000000E-01  7.5951204493845E-01  7.5062632351967E-01  3.9002676030890E-01
75  7.4000000000000E-01  7.1032529920417E-01  7.8647742592412E-01  3.8257922395635E-01
76  7.5000000000000E-01  6.5931145669564E-01  8.2480101193572E-01  3.7141206199507E-01
77  7.6000000000000E-01  6.0661812264036E-01  8.6542155675179E-01  3.5670840580878E-01
78  7.7000000000000E-01  5.5241035764606E-01  9.0812759653323E-01  3.3870490732585E-01
79  7.8000000000000E-01  4.9686967005771E-01  9.5267335877257E-01  3.1768937126566E-01
80  7.9000000000000E-01  4.4019281873432E-01  9.9878079758707E-01  2.9399773220646E-01
81  8.0000000000000E-01  3.8259043931739E-01  1.0461420115225E+00  2.6801040827322E-01
82  8.1000000000000E-01  3.2428550914732E-01  1.0944220170366E+00  2.4014807083266E-01
83  8.2000000000000E-01  2.6551166785450E-01  1.1432618467859E+00  2.1086687671127E-01
84  8.3000000000000E-01  2.0651141227691E-01  1.1922819382289E+00  1.8065321602299E-01
85  8.4000000000000E-01  1.4753418572013E-01  1.2410857749129E+00  1.5001803464486E-01
86  8.5000000000000E-01  8.8834382655066E-02  1.2892637401840E+00  1.1949079562934E-01
87  8.6000000000000E-01  3.0669290737212E-02  1.3363971409588E+00  8.9613148353946E-02
88  8.7000000000000E-01 -2.6703007486186E-02  1.3820623576586E+00  6.0932377919268E-02
89  8.8000000000000E-01 -8.3025750632762E-02  1.4258350754276E+00  3.3994710205151E-02
90  8.9000000000000E-01 -1.3804560988072E-01  1.4672945513426E+00  9.3385500435760E-03
91  9.0000000000000E-01 -1.9151477369355E-01  1.5060278724592E+00 -1.2512268823616E-02
92  9.1000000000000E-01 -2.4319298456015E-01  1.5416341602051E+00 -3.1055142968196E-02
93  9.2000000000000E-01 -2.9284950739453E-01  1.5737286778035E+00 -4.5815189099657E-02
94  9.3000000000000E-01 -3.4026501043645E-01  1.6019467990394E+00 -5.6351487159261E-02
95  9.4000000000000E-01 -3.8523334090010E-01  1.6259477987269E+00 -6.2263001348608E-02
96  9.5000000000000E-01 -4.2756317920589E-01  1.6454184276497E+00 -6.3194106469821E-02
97  9.6000000000000E-01 -4.6707955736024E-01  1.6600762374539E+00 -5.8839650315451E-02
98  9.7000000000000E-01 -5.0362522888434E-01  1.6696726239264E+00 -4.8949486802400E-02
99  9.8000000000000E-01 -5.3706187959892E-01  1.6739955602191E+00 -3.3332419050489E-02
100  9.9000000000000E-01 -5.6727117050006E-01  1.6728719948040E+00 -1.1859496580171E-02
101  1.0000000000000E+00 -5.9415560588102E-01  1.6661698922245E+00  1.5533383773892E-02
102  1.0100000000000E+00 -6.1763922171613E-01  1.6537998979503E+00  4.8843617848279E-02
103  1.0200000000000E+00 -6.3766809109975E-01  1.6357166118208E+00  8.8000813492048E-02
104  1.0300000000000E+00 -6.5421064518135E-01  1.6119194575988E+00  1.3286652124439E-01
105  1.0400000000000E+00 -6.6725780953731E-01  1.5824531390368E+00  1.8323480151360E-01
106  1.0500000000000E+00 -6.7682295723925E-01  1.5474076755348E+00  2.3883364626302E-01
107  1.0600000000000E+00 -6.8294168100877E-01  1.5069180129499E+00  2.9932726564025E-01
108  1.0700000000000E+00 -6.8567138777383E-01  1.4611632073906E+00  3.6431924196632E-01
109  1.0800000000000E+00 -6.8509071967142E-01  1.4103651819397E+00  4.3335654486512E-01
110  1.0900000000000E+00 -6.8129880607851E-01  1.3547870582281E+00  5.0593439198874E-01
111  1.1000000000000E+00 -6.7441435163075E-01  1.2947310667194E+00  5.8150192951850E-01
112  1.1100000000000E+00 -6.6457456543629E-01  1.2305360415513E+00  6.5946869521972E-01
113  1.1200000000000E+00 -6.5193393686624E-01  1.1625745079515E+00  7.3921181400255E-01
114  1.1300000000000E+00 -6.3666286346896E-01  1.0912493727723E+00  8.2008386133327E-01
115  1.1400000000000E+00 -6.1894613679601E-01  1.0169902317451E+00  9.0142131314671E-01
116  1.1500000000000E+00 -5.9898129234735E-01  9.4024931092187E-01  9.8255348155544E-01
117  1.1600000000000E+00 -5.7697683055741E-01  8.6149706465652E-01  1.0628118133154E+00
118  1.1700000000000E+00 -5.5315031690099E-01  7.8121745877016E-01  1.1415394019109E+00
119  1.1800000000000E+00 -5.2772637095074E-01  6.9990297553314E-01  1.2181005338437E+00
120  1.1900000000000E+00 -5.0093455675703E-01  6.1804938722540E-01  1.2918900544055E+00
121  1.2000000000000E+00 -4.7300719046154E-01  5.3615035777132E-01  1.3623422970878E+00
122  1.2100000000000E+00 -4.4417708579481E-01  4.5469194767347E-01  1.4289392732917E+00
123  1.2200000000000E+00 -4.1467526438445E-01  3.7414711699020E-01  1.4912177635391E+00
124  1.2300000000000E+00 -3.8472866577848E-01  2.9497034465153E-01  1.5487748879567E+00
125  1.2400000000000E+00 -3.5455790221869E-01  2.1759251105193E-01  1.6012716602261E+00
126  1.2500000000000E+00 -3.2437511576002E-01  1.4241622510736E-01  1.6484339449102E+00
127  1.2600000000000E+00 -2.9438201062055E-01  6.9811817413132E-02  1.6900501421720E+00
128  1.2700000000000E+00 -2.6476815233527E-01  1.1426930725122E-04  1.7259648135318E+00
129  1.2800000000000E+00 -2.3570964753897E-01 -6.6378596290960E-02  1.7560673377323E+00
130  1.2900000000000E+00 -2.0736834461544E-01 -1.2940627111568E-01  1.7802745442545E+00
131  1.3000000000000E+00 -1.7989172269408E-01 -1.8874360993213E-01  1.7985062304312E+00
132  1.3100000000000E+00 -1.5341370146028E-01 -2.4419614317151E-01  1.8106514398405E+00
133  1.3200000000000E+00 -1.2805541973438E-01 -2.9559566043949E-01  1.8165564138612E+00
134  1.3300000000000E+00 -1.0392345513557E-01 -3.4280426473214E-01  1.8160895129180E+00
135  1.3400000000000E+00 -8.1108633453158E-02 -3.8571760291749E-01  1.8091760406042E+00
136  1.3500000000000E+00 -5.9686049438390E-02 -4.2426475575706E-01  1.7957977150261E+00
137  1.3600000000000E+00 -3.9715217528408E-02 -4.5840786506486E-01  1.7759922194013E+00
138  1.3700000000000E+00 -2.1240371234365E-02 -4.8814143694281E-01  1.7498519787296E+00
139  1.3800000000000E+00 -4.2908944243190E-03 -5.1349136075483E-01  1.7175224532016E+00
140  1.3900000000000E+00  1.1118124949902E-02 -5.3451366186699E-01  1.6791999582146E+00
141  1.4000000000000E+00  2.4985229653738E-02 -5.5129300979449E-01  1.6351290420019E+00
142  1.4100000000000E+00  3.7321828364488E-02 -5.6394100544249E-01  1.5855994559259E+00
143  1.4200000000000E+00  4.8151343835719E-02 -5.7259427282198E-01  1.5309427560634E+00
144  1.4300000000000E+00  5.7508287130822E-02 -5.7741238194163E-01  1.4715285776179E+00
145  1.4400000000000E+00  6.5437271357895E-02 -5.7857563051853E-01  1.4077606260548E+00
146  1.4500000000000E+00  7.1991978513071E-02 -5.7628271280090E-01  1.3400724309918E+00
147  1.4600000000000E+00  7.7234092997014E-02 -5.7074830397434E-01  1.2689229099260E+00
148  1.4700000000000E+00  8.1232215183245E-02 -5.6220058853477E-01  1.1947917897928E+00
149  1.4800000000000E+00  8.4060768066048E-02 -5.5087876058466E-01  1.1181749346923E+00
150  1.4900000000000E+00  8.5798909477095E-02 -5.3703052315908E-01  1.0395796274862E+00
151  1.5000000000000E+00  8.6529461734060E-02 -5.2090961270208E-01  9.5951985254526E-01
152  1.5100000000000E+00  8.6337869794043E-02 -5.0277337343491E-01  8.7851162545828E-01
153  1.5200000000000E+00  8.5311197981543E-02 -4.8288040446001E-01  7.9706841271550E-01
154  1.5300000000000E+00  8.3537174846001E-02 -4.6148830196353E-01  7.1569668699087E-01
155  1.5400000000000E+00  8.1103293596167E-02 -4.3885151395842E-01  6.3489165060919E-01
156  1.5500000000000E+00  7.8095975541321E-02 -4.1521932597805E-01  5.5513316808190E-01
157  1.5600000000000E+00  7.4599802763764E-02 -3.9083399376722E-01  4.7688194515120E-01
158  1.5700000000000E+00  7.0696823487615E-02 -3.6592903226245E-01  4.0057597249114E-01
159  1.5800000000000E+00  6.6465934642063E-02 -3.4072767403095E-01  3.2662727119265E-01
160  1.5900000000000E+00  6.1982343272141E-02 -3.1544150327096E-01  2.5541895671834E-01
161  1.6000000000000E+00  5.7317108018810E-02 -2.9026927112790E-01  1.8730264149938E-01
162  1.6100000000000E+00  5.2536760573492E-02 -2.6539589517480E-01  1.2259619045866E-01
163  1.6200000000000E+00  4.7703005956187E-02 -2.4099164365113E-01  6.1581839931410E-02
164  1.6300000000000E+00  4.2872499514751E-02 -2.1721150298939E-01  4.5046868905984E-03
165  1.6400000000000E+00  3.8096697594489E-02 -1.9419472501333E-01 -4.8428448746606E-02
166  1.6500000000000E+00  3.3421778009161E-02 -1.7206454829991E-01 -9.7049789634164E-02
167  1.6600000000000E+00  2.8888625766572E-02 -1.5092808657912E-01 -1.4123099848003E-01
168  1.6700000000000E+00  2.4532878835468E-02 -1.3087637536237E-01 -1.8088321542208E-01
169  1.6800000000000E+00  2.0385028294057E-02 -1.1198456679054E-01 -2.1595674595686E-01
170  1.6900000000000E+00  1.6470566766107E-02 -9.4312261432790E-02 -2.4644041333882E-01
171  1.7000000000000E+00  1.2810178832914E-02 -7.7903964983539E-02 -2.7236059162380E-01
172  1.7100000000000E+00  9.4199669129270E-03 -6.2789656995621E-02 -2.9377993817260E-01
173  1.7200000000000E+00  6.3117060628075E-03 -4.8985458314784E-02 -3.1079584643357E-01
174  1.7300000000000E+00  3.4931212428384E-03 -3.6494383665953E-02 -3.2353864140815E-01
175  1.7400000000000E+00  9.6818072169265E-04 -2.5307165681952E-02 -3.3216954187000E-01
176  1.7500000000000E+00 -1.2626004555724E-03 -1.5403136757977E-02 -3.3687841459768E-01
177  1.7600000000000E+00 -3.2018526263565E-03 -6.7511555134122E-03 -3.3788134646553E-01
178  1.7700000000000E+00 -4.8550446401791E-03  6.8943507682211E-04 -3.3541806122167E-01
179  1.7800000000000E+00 -6.2301827058648E-03  6.9678299394160E-03 -3.2974920739858E-01
180  1.7900000000000E+00 -7.3375198974803E-03  1.2140777638447E-02 -3.2115354794079E-01
181  1.8000000000000E+00 -8.1892774119310E-03  1.6271593937505E-02 -3.0992506338877E-01
182  1.8100000000000E+00 -8.7993867066062E-03  1.9429197479250E-02 -2.9637002882563E-01
183  1.8200000000000E+00 -9.1832474375201E-03  2.1687158071972E-02 -2.8080404736461E-01
184  1.8300000000000E+00 -9.3575079912595E-03  2.3122777211794E-02 -2.6354909263996E-01
185  1.8400000000000E+00 -9.3398697577877E-03  2.3816207273604E-02 -2.4493058339012E-01
186  1.8500000000000E+00 -9.1489136895720E-03  2.3849609900471E-02 -2.2527450071084E-01
187  1.8600000000000E+00 -8.8039510059605E-03  2.3306362447504E-02 -2.0490457918190E-01
188  1.8700000000000E+00 -8.3248947045976E-03  2.2270310510807E-02 -1.8413958367942E-01
189  1.8800000000000E+00 -7.7321638979260E-03  2.0825092535866E-02 -1.6329071836582E-01
190  1.8900000000000E+00 -7.0466339287425E-03  1.9053563814122E-02 -1.4265921481037E-01
191  1.9000000000000E+00 -6.2893275963397E-03  1.7036778736359E-02 -1.2253348134723E-01
192  1.9100000000000E+00 -5.4834480313099E-03  1.4857191170722E-02 -1.0319127727864E-01
193  1.9200000000000E+00 -4.6683613032195E-03  1.2623390587661E-02 -8.4927263658860E-02
194  1.9300000000000E+00 -3.8724266312066E-03  1.0420966523535E-02 -6.7994108864703E-02
195  1.9400000000000E+00 -3.1064696583224E-03  8.3003833528100E-03 -5.2587016050202E-02
196  1.9500000000000E+00 -2.3854029172415E-03  6.3154344043652E-03 -3.8887649892594E-02
197  1.9600000000000E+00 -1.7252054131673E-03  4.5175802214126E-03 -2.7056586982935E-02
198  1.9700000000000E+00 -1.1433723611428E-03  2.9565417715252E-03 -1.7233237443185E-02
199  1.9800000000000E+00 -6.5922730688924E-04  1.6808785429257E-03 -9.5388643590845E-03
200  1.9900000000000E+00 -2.9054435464418E-04  7.2976223959998E-04 -4.0343392155963E-03
201  2.0000000000000E+00 -6.9390947490670E-05  1.7126633332293E-04 -9.1984645970463E-04
202  2.0100000000000E+00  3.3691794465029E-06 -8.3508520363329E-06  4.5856695540096E-05
203  2.0200000000000E+00  7.1762625663127E-07 -1.7429153516318E-06  9.1537251621336E-06
204  2.03 -0.  0. -0.
205  2.04  0. -0.  0.
206  2.05  0. -0.  0.
207  2.06  0.  0.  0.
208  2.07  0.  0.  0.
209  2.08  0.  0.  0.
210  2.09  0.  0.  0.
211  2.10  0.  0.  0.
212  2.11  0.  0.  0.
213  2.12  0.  0.  0.
214  2.13  0.  0.  0.
215  2.14  0.  0.  0.
216  2.15  0.  0.  0.
217  2.16  0.  0.  0.
218  2.17  0.  0.  0.
219  2.18  0.  0.  0.
220  2.19  0.  0.  0.
221  2.20  0.  0.  0.
222  2.21  0.  0.  0.
223  2.22  0.  0.  0.
224  2.23  0.  0.  0.
225  2.24  0.  0.  0.
226  2.25  0.  0.  0.
227  2.26  0.  0.  0.
228  2.27  0.  0.  0.
229  2.28  0.  0.  0.
230  2.29  0.  0.  0.
231  2.30  0.  0.  0.
232  2.31  0.  0.  0.
233  2.32  0.  0.  0.
234  2.33  0.  0.  0.
235  2.34  0.  0.  0.
236  2.35  0.  0.  0.
237  2.36  0.  0.  0.
238  2.37  0.  0.  0.
239  2.38  0.  0.  0.
240  2.39  0.  0.  0.
241  2.40  0.  0.  0.
242  2.41  0.  0.  0.
243  2.42  0.  0.  0.
244  2.43  0.  0.  0.
245  2.44  0.  0.  0.
246  2.45  0.  0.  0.
247  2.46  0.  0.  0.
248  2.47  0.  0.  0.
249  2.48  0.  0.  0.
250  2.49  0.  0.  0.
251  2.50  0.  0.  0.
252  2.51  0.  0.  0.
253  2.52  0.  0.  0.
254  2.53  0.  0.  0.
255  2.54  0.  0.  0.
256  2.55  0.  0.  0.
257  2.56  0.  0.  0.
258  2.57  0.  0.  0.
259  2.58  0.  0.  0.
260  2.59  0.  0.  0.
261  2.60  0.  0.  0.
262  2.61  0.  0.  0.
263  2.62  0.  0.  0.
264  2.63  0.  0.  0.
265  2.64  0.  0.  0.
266  2.65  0.  0.  0.
267  2.66  0.  0.  0.
268  2.67  0.  0.  0.
269  2.68  0.  0.  0.
270  2.69  0.  0.  0.
271  2.70  0.  0.  0.
272  2.71  0.  0.  0.
273  2.72  0.  0.  0.
274  2.73  0.  0.  0.
275  2.74  0.  0.  0.
276  2.75  0.  0.  0.
277  2.76  0.  0.  0.
278  2.77  0.  0.  0.
279  2.78  0.  0.  0.
280  2.79  0.  0.  0.
281  2.80  0.  0.  0.
282  2.81  0.  0.  0.
283  2.82  0.  0.  0.
284  2.83  0.  0.  0.
285  2.84  0.  0.  0.
286  2.85  0.  0.  0.
287  2.86  0.  0.  0.
288  2.87  0.  0.  0.
289  2.88  0.  0.  0.
290  2.89  0.  0.  0.
291  2.90  0.  0.  0.
292  2.91  0.  0.  0.
293  2.92  0.  0.  0.
294  2.93  0.  0.  0.
295  2.94  0.  0.  0.
296  2.95  0.  0.  0.
297  2.96  0.  0.  0.
298  2.97  0.  0.  0.
299  2.98  0.  0.  0.
300  2.99  0.  0.  0.
301  3.00  0.  0.  0.
302  3.01  0.  0.  0.
303  3.02  0.  0.  0.
304  3.03  0.  0.  0.
305  3.04  0.  0.  0.
306  3.05  0.  0.  0.
307  3.06  0.  0.  0.
308  3.07  0.  0.  0.
309  3.08  0.  0.  0.
310  3.09  0.  0.  0.
311  3.10  0.  0.  0.
312  3.11  0.  0.  0.
313  3.12  0.  0.  0.
314  3.13  0.  0.  0.
315  3.14  0.  0.  0.
316  3.15  0.  0.  0.
317  3.16  0.  0.  0.
318  3.17  0.  0.  0.
319  3.18  0.  0.  0.
320  3.19  0.  0.  0.
321  3.20  0.  0.  0.
322  3.21  0.  0.  0.
323  3.22  0.  0.  0.
324  3.23  0.  0.  0.
325  3.24  0.  0.  0.
326  3.25  0.  0.  0.
327  3.26  0.  0.  0.
328  3.27  0.  0.  0.
329  3.28  0.  0.  0.
330  3.29  0.  0.  0.
331  3.30  0.  0.  0.
332  3.31  0.  0.  0.
333  3.32  0.  0.  0.
334  3.33  0.  0.  0.
335  3.34  0.  0.  0.
336  3.35  0.  0.  0.
337  3.36  0.  0.  0.
338  3.37  0.  0.  0.
339  3.38  0.  0.  0.
340  3.39  0.  0.  0.
341  3.40  0.  0.  0.
342  3.41  0.  0.  0.
343  3.42  0.  0.  0.
344  3.43  0.  0.  0.
345  3.44  0.  0.  0.
346  3.45  0.  0.  0.
347  3.46  0.  0.  0.
348  3.47  0.  0.  0.
349  3.48  0.  0.  0.
350  3.49  0.  0.  0.
351  3.50  0.  0.  0.
352  3.51  0.  0.  0.
353  3.52  0.  0.  0.
354  3.53  0.  0.  0.
355  3.54  0.  0.  0.
356  3.55  0.  0.  0.
357  3.56  0.  0.  0.
358  3.57  0.  0.  0.
359  3.58  0.  0.  0.
360  3.59  0.  0.  0.
361  3.60  0.  0.  0.
362  3.61  0.  0.  0.
363  3.62  0.  0.  0.
364  3.63  0.  0.  0.
365  3.64  0.  0.  0.
366  3.65  0.  0.  0.
367  3.66  0.  0.  0.
368  3.67  0.  0.  0.
369  3.68  0.  0.  0.
370  3.69  0.  0.  0.
371  3.70  0.  0.  0.
372  3.71  0.  0.  0.
373  3.72  0.  0.  0.
374  3.73  0.  0.  0.
375  3.74  0.  0.  0.
376  3.75  0.  0.  0.
377  3.76  0.  0.  0.
378  3.77  0.  0.  0.
379  3.78  0.  0.  0.
380  3.79  0.  0.  0.
381  3.80  0.  0.  0.
382  3.81  0.  0.  0.
383  3.82  0.  0.  0.
384  3.83  0.  0.  0.
385  3.84  0.  0.  0.
386  3.85  0.  0.  0.
387  3.86  0.  0.  0.
388  3.87  0.  0.  0.
389  3.88  0.  0.  0.
390  3.89  0.  0.  0.
391  3.90  0.  0.  0.
392  3.91  0.  0.  0.
393  3.92  0.  0.  0.
394  3.93  0.  0.  0.
395  3.94  0.  0.  0.
396  3.95  0.  0.  0.
397  3.96  0.  0.  0.
398  3.97  0.  0.  0.
399  3.98  0.  0.  0.
400  3.99  0.  0.  0.
401  4.00  0.  0.  0.
402  4.01  0.  0.  0.
403  4.02  0.  0.  0.
404  4.03  0.  0.  0.
405  4.04  0.  0.  0.
406  4.05  0.  0.  0.
407  4.06  0.  0.  0.
408  4.07  0.  0.  0.
409  4.08  0.  0.  0.
410  4.09  0.  0.  0.
411  4.10  0.  0.  0.
412  4.11  0.  0.  0.
413  4.12  0.  0.  0.
414  4.13  0.  0.  0.
415  4.14  0.  0.  0.
416  4.15  0.  0.  0.
417  4.16  0.  0.  0.
418  4.17  0.  0.  0.
419  4.18  0.  0.  0.
420  4.19  0.  0.  0.
421  4.20  0.  0.  0.
422  4.21  0.  0.  0.
423  4.22  0.  0.  0.
424  4.23  0.  0.  0.
425  4.24  0.  0.  0.
426  4.25  0.  0.  0.
427  4.26  0.  0.  0.
428  4.27  0.  0.  0.
429  4.28  0.  0.  0.
430  4.29  0.  0.  0.
431  4.30  0.  0.  0.
432  4.31  0.  0.  0.
433  4.32  0.  0.  0.
434  4.33  0.  0.  0.
435  4.34  0.  0.  0.
436  4.35  0.  0.  0.
437  4.36  0.  0.  0.
438  4.37  0.  0.  0.
439  4.38  0.  0.  0.
440  4.39  0.  0.  0.
441  4.40  0.  0.  0.
442  4.41  0.  0.  0.
443  4.42  0.  0.  0.
444  4.43  0.  0.  0.
445  4.44  0.  0.  0.
446  4.45  0.  0.  0.
447  4.46  0.  0.  0.
448  4.47  0.  0.  0.
449  4.48  0.  0.  0.
450  4.49  0.  0.  0.
451  4.50  0.  0.  0.
452  4.51  0.  0.  0.
453  4.52  0.  0.  0.
454  4.53  0.  0.  0.
455  4.54  0.  0.  0.
456  4.55  0.  0.  0.
457  4.56  0.  0.  0.
458  4.57  0.  0.  0.
459  4.58  0.  0.  0.
460  4.59  0.  0.  0.
461  4.60  0.  0.  0.
462  4.61  0.  0.  0.
463  4.62  0.  0.  0.
464  4.63  0.  0.  0.
465  4.64  0.  0.  0.
466  4.65  0.  0.  0.
467  4.66  0.  0.  0.
468  4.67  0.  0.  0.
469  4.68  0.  0.  0.
470  4.69  0.  0.  0.
471  4.70  0.  0.  0.
472  4.71  0.  0.  0.
473  4.72  0.  0.  0.
474  4.73  0.  0.  0.
475  4.74  0.  0.  0.
476  4.75  0.  0.  0.
477  4.76  0.  0.  0.
478  4.77  0.  0.  0.
479  4.78  0.  0.  0.
480  4.79  0.  0.  0.
481  4.80  0.  0.  0.
482  4.81  0.  0.  0.
483  4.82  0.  0.  0.
484  4.83  0.  0.  0.
485  4.84  0.  0.  0.
486  4.85  0.  0.  0.
487  4.86  0.  0.  0.
488  4.87  0.  0.  0.
489  4.88  0.  0.  0.
490  4.89  0.  0.  0.
491  4.90  0.  0.  0.
492  4.91  0.  0.  0.
493  4.92  0.  0.  0.
494  4.93  0.  0.  0.
495  4.94  0.  0.  0.
496  4.95  0.  0.  0.
497  4.96  0.  0.  0.
498  4.97  0.  0.  0.
499  4.98  0.  0.  0.
500  4.99  0.  0.  0.
501  5.00  0.  0.  0.
502  5.01  0.  0.  0.
503  5.02  0.  0.  0.
504  5.03  0.  0.  0.
505  5.04  0.  0.  0.
506  5.05  0.  0.  0.
507  5.06  0.  0.  0.
508  5.07  0.  0.  0.
509  5.08  0.  0.  0.
510  5.09  0.  0.  0.
511  5.10  0.  0.  0.
512  5.11  0.  0.  0.
513  5.12  0.  0.  0.
514  5.13  0.  0.  0.
515  5.14  0.  0.  0.
516  5.15  0.  0.  0.
517  5.16  0.  0.  0.
518  5.17  0.  0.  0.
519  5.18  0.  0.  0.
520  5.19  0.  0.  0.
521  5.20  0.  0.  0.
522  5.21  0.  0.  0.
523  5.22  0.  0.  0.
524  5.23  0.  0.  0.
525  5.24  0.  0.  0.
526  5.25  0.  0.  0.
527  5.26  0.  0.  0.
528  5.27  0.  0.  0.
529  5.28  0.  0.  0.
530  5.29  0.  0.  0.
531  5.30  0.  0.  0.
532  5.31  0.  0.  0.
533  5.32  0.  0.  0.
534  5.33  0.  0.  0.
535  5.34  0.  0.  0.
536  5.35  0.  0.  0.
537  5.36  0.  0.  0.
538  5.37  0.  0.  0.
539  5.38  0.  0.  0.
540  5.39  0.  0.  0.
541  5.40  0.  0.  0.
542  5.41  0.  0.  0.
543  5.42  0.  0.  0.
544  5.43  0.  0.  0.
545  5.44  0.  0.  0.
546  5.45  0.  0.  0.
547  5.46  0.  0.  0.
548  5.47  0.  0.  0.
549  5.48  0.  0.  0.
550  5.49  0.  0.  0.
551  5.50  0.  0.  0.
552  5.51  0.  0.  0.
553  5.52  0.  0.  0.
554  5.53  0.  0.  0.
555  5.54  0.  0.  0.
556  5.55  0.  0.  0.
557  5.56  0.  0.  0.
558  5.57  0.  0.  0.
559  5.58  0.  0.  0.
560  5.59  0.  0.  0.
561  5.60  0.  0.  0.
562  5.61  0.  0.  0.
563  5.62  0.  0.  0.
564  5.63  0.  0.  0.
565  5.64  0.  0.  0.
566  5.65  0.  0.  0.
567  5.66  0.  0.  0.
568  5.67  0.  0.  0.
569  5.68  0.  0.  0.
570  5.69  0.  0.  0.
571  5.70  0.  0.  0.
572  5.71  0.  0.  0.
573  5.72  0.  0.  0.
574  5.73  0.  0.  0.
575  5.74  0.  0.  0.
576  5.75  0.  0.  0.
577  5.76  0.  0.  0.
578  5.77  0.  0.  0.
579  5.78  0.  0.  0.
580  5.79  0.  0.  0.
581  5.80  0.  0.  0.
582  5.81  0.  0.  0.
583  5.82  0.  0.  0.
584  5.83  0.  0.  0.
585  5.84  0.  0.  0.
586  5.85  0.  0.  0.
587  5.86  0.  0.  0.
588  5.87  0.  0.  0.
589  5.88  0.  0.  0.
590  5.89  0.  0.  0.
591  5.90  0.  0.  0.
592  5.91  0.  0.  0.
593  5.92  0.  0.  0.
594  5.93  0.  0.  0.
595  5.94  0.  0.  0.
596  5.95  0.  0.  0.
597  5.96  0.  0.  0.
598  5.97  0.  0.  0.
599  5.98  0.  0.  0.
600  5.99  0.  0.  0.
1                         7.3652722683087E+00  8.3783420703033E-01
1  0.0000000000000E+00  3.0347922785889E-10 -1.9875522477841E-09
2  1.0000000000000E-02  1.1566523743609E-03 -8.7379603647739E-04
3  2.0000000000000E-02  4.6226048827509E-03 -3.4867683958203E-03
4  3.0000000000000E-02  1.0385864045990E-02 -7.8137619601956E-03
5  4.0000000000000E-02  1.8426508453104E-02 -1.3813157555469E-02
6  5.0000000000000E-02  2.8716789776939E-02 -2.1427327195125E-02
7  6.0000000000000E-02  4.1221273068956E-02 -3.0583263884807E-02
8  7.0000000000000E-02  5.5897015216909E-02 -4.1193378547632E-02
9  8.0000000000000E-02  7.2693780145638E-02 -5.3156454642892E-02
10  9.0000000000000E-02  9.1554289049226E-02 -6.6358749165127E-02
11  1.0000000000000E-01  1.1241450366492E-01 -8.0675226948054E-02
12  1.1000000000000E-01  1.3520394033794E-01 -9.5970913578443E-02
13  1.2000000000000E-01  1.5984601238424E-01 -1.1210235076759E-01
14  1.3000000000000E-01  1.8625839803741E-01 -1.2891913675014E-01
15  1.4000000000000E-01  2.1435343106941E-01 -1.4626553319755E-01
16  1.5000000000000E-01  2.4403851100398E-01 -1.6398211926066E-01
17  1.6000000000000E-01  2.7521652969932E-01 -1.8190747270539E-01
18  1.7000000000000E-01  3.0778631096435E-01 -1.9987985768717E-01
19  1.8000000000000E-01  3.4164305979316E-01 -2.1773889853204E-01
20  1.9000000000000E-01  3.7667881775541E-01 -2.3532721896076E-01
21  2.0000000000000E-01  4.1278292106951E-01 -2.5249202651006E-01
22  2.1000000000000E-01  4.4984245790972E-01 -2.6908662247300E-01
23  2.2000000000000E-01  4.8774272155987E-01 -2.8497181849545E-01
24  2.3000000000000E-01  5.2636765612483E-01 -3.0001724202434E-01
25  2.4000000000000E-01  5.6560029164636E-01 -3.1410251409544E-01
26  2.5000000000000E-01  6.0532316564184E-01 -3.2711828446582E-01
27  2.6000000000000E-01  6.4541872829236E-01 -3.3896711082218E-01
28  2.7000000000000E-01  6.8576972874769E-01 -3.4956417071690E-01
29  2.8000000000000E-01  7.2625958029003E-01 -3.5883779697772E-01
30  2.9000000000000E-01  7.6677270240161E-01 -3.6672982958249E-01
31  3.0000000000000E-01  8.0719483811119E-01 -3.7319577936361E-01
32  3.1000000000000E-01  8.4741334534813E-01 -3.7820480137958E-01
33  3.2000000000000E-01  8.8731746140462E-01 -3.8173947833418E-01
34  3.3000000000000E-01  9.2679853999392E-01 -3.8379541700713E-01
35  3.4000000000000E-01  9.6575026078912E-01 -3.8438066325007E-01
36  3.5000000000000E-01  1.0040688117278E+00 -3.8351494366470E-01
37  3.6000000000000E-01  1.0416530447687E+00 -3.8122874458223E-01
38  3.7000000000000E-01  1.0784046061772E+00 -3.7756224136842E-01
39  3.8000000000000E-01  1.1142280428003E+00 -3.7256409335384E-01
40  3.9000000000000E-01  1.1490308861459E+00 -3.6629012179791E-01
41  4.0000000000000E-01  1.1827237164226E+00 -3.5880189020686E-01
42  4.1000000000000E-01  1.2152202089951E+00 -3.5016520800730E-01
43  4.2000000000000E-01  1.2464371659775E+00 -3.4044857999948E-01
44  4.3000000000000E-01  1.2762945359113E+00 -3.2972162515115E-01
45  4.4000000000000E-01  1.3047154246487E+00 -3.1805348912036E-01
46  4.5000000000000E-01  1.3316261006854E+00 -3.0551127539372E-01