Tm    ONCVPSP-4.0.1  r_core=   2.00859   1.60017   1.90331   1.30568
69.0000     23.0000      241015    zatom,zion,pspd
8      11   3     4   600     0    pspcod,pspxc,lmax,lloc,mmax,r2well
5.99000000  4.00000000  0.00000000    rchrg fchrg qchrg
3     2     2     2     0    nproj
1     1           extension_switch
0                         1.2307867300763E+01  3.2054079189013E+00  6.2362478592838E-01
1  0.0000000000000E+00 -8.8355928129502E-10  1.7784307360103E-09 -2.6857975288230E-09
2  1.0000000000000E-02  6.4114544458762E-02 -2.8492157217783E-02  5.1423298451095E-02
3  2.0000000000000E-02  1.2801851042206E-01 -5.6656596730981E-02  1.0234366076953E-01
4  3.0000000000000E-02  1.9150309470415E-01 -8.4169159813716E-02  1.5226373985693E-01
5  4.0000000000000E-02  2.5436302476210E-01 -1.1071276492598E-01  2.0069730379375E-01
6  5.0000000000000E-02  3.1639827430260E-01 -1.3598084483423E-01  2.4717463689334E-01
7  6.0000000000000E-02  3.7741571986413E-01 -1.5968066323864E-01  2.9124775483550E-01
8  7.0000000000000E-02  4.3723071974719E-01 -1.8153647285050E-01  3.3249537508859E-01
9  8.0000000000000E-02  4.9566859754890E-01 -2.0129247864188E-01  3.7052758651466E-01
10  9.0000000000000E-02  5.5256601364455E-01 -2.1871557217686E-01  4.0499016535687E-01
11  1.0000000000000E-01  6.0777220923672E-01 -2.3359780550761E-01  4.3556848869921E-01
12  1.1000000000000E-01  6.6115010904790E-01 -2.4575857605107E-01  4.6199100092319E-01
13  1.2000000000000E-01  7.1257727034972E-01 -2.5504649712215E-01  4.8403219362070E-01
14  1.3000000000000E-01  7.6194666778337E-01 -2.6134093235276E-01  5.0151506480456E-01
15  1.4000000000000E-01  8.0916730531259E-01 -2.6455317603406E-01  5.1431302903090E-01
16  1.5000000000000E-01  8.5416464864157E-01 -2.6462726544172E-01  5.2235125615339E-01
17  1.6000000000000E-01  8.9688087350402E-01 -2.6154041539691E-01  5.2560742279895E-01
18  1.7000000000000E-01  9.3727492736310E-01 -2.5530306963368E-01  5.2411186722584E-01
19  1.8000000000000E-01  9.7532240423129E-01 -2.4595856793927E-01  5.1794714492288E-01
20  1.9000000000000E-01  1.0110152345004E+00 -2.3358243245947E-01  5.0724698906490E-01
21  2.0000000000000E-01  1.0443611938408E+00 -2.1828128096752E-01  4.9219468667909E-01
22  2.1000000000000E-01  1.0753832373582E+00 -2.0019137923198E-01  4.7302088802590E-01
23  2.2000000000000E-01  1.1041186672675E+00 -1.7947684883890E-01  4.5000087318454E-01
24  2.3000000000000E-01  1.1306181443227E+00 -1.5632755087884E-01  4.2345130608516E-01
25  2.4000000000000E-01  1.1549445551185E+00 -1.3095666974987E-01  3.9372651217300E-01
26  2.5000000000000E-01  1.1771717491187E+00 -1.0359802491368E-01  3.6121432146252E-01
27  2.6000000000000E-01  1.1973831608574E+00 -7.4503141727336E-02  3.2633152387273E-01
28  2.7000000000000E-01  1.2156703341752E+00 -4.3938115419520E-02  2.8951898836919E-01
29  2.8000000000000E-01  1.2321313665812E+00 -1.2180304850998E-02  2.5123650151771E-01
30  2.9000000000000E-01  1.2468692928510E+00  2.0485105136404E-02  2.1195738453198E-01
31  3.0000000000000E-01  1.2599904277766E+00  5.3768632250997E-02  1.7216295072239E-01
32  3.1000000000000E-01  1.2716026885512E+00  8.7380074362956E-02  1.3233686739381E-01
33  3.2000000000000E-01  1.2818139176076E+00  1.2103209360601E-01  9.2959487663754E-02
34  3.3000000000000E-01  1.2907302268128E+00  1.5444376408113E-01  5.4502218354036E-02
35  3.4000000000000E-01  1.2984543837588E+00  1.8734404047527E-01  1.7421990037120E-02
36  3.5000000000000E-01  1.3050842604769E+00  2.1947510561150E-01 -1.7844105514648E-02
37  3.6000000000000E-01  1.3107113642432E+00  2.5059555614956E-01 -5.0883946823384E-02
38  3.7000000000000E-01  1.3154194692404E+00  2.8048338734837E-01 -8.1315221832756E-02
39  3.8000000000000E-01  1.3192833667054E+00  3.0893873996891E-01 -1.0878991643079E-01
40  3.9000000000000E-01  1.3223677498349E+00  3.3578637501580E-01 -1.3299839790533E-01
41  4.0000000000000E-01  1.3247262481538E+00  3.6087784506739E-01 -1.5367304331467E-01
42  4.1000000000000E-01  1.3264006242929E+00  3.8409333438480E-01 -1.7059136781451E-01
43  4.2000000000000E-01  1.3274201441910E+00  4.0534314379863E-01 -1.8357861362112E-01
44  4.3000000000000E-01  1.3278011296560E+00  4.2456880048881E-01 -1.9250976642797E-01
45  4.4000000000000E-01  1.3275467000093E+00  4.4174377716833E-01 -1.9731097268264E-01
46  4.5000000000000E-01  1.3266467072258E+00  4.5687380979400E-01 -1.9796033808549E-01
47  4.6000000000000E-01  1.3250778666023E+00  4.6999680770775E-01 -1.9448809491792E-01
48  4.7000000000000E-01  1.3228040825482E+00  4.8118235500757E-01 -1.8697613326948E-01
49  4.8000000000000E-01  1.3197769666568E+00  4.9053080689034E-01 -1.7555689880753E-01
50  4.9000000000000E-01  1.3159365427738E+00  4.9817198965140E-01 -1.6041166735083E-01
51  5.0000000000000E-01  1.3112121313998E+00  5.0426351789679E-01 -1.4176821406090E-01
52  5.1000000000000E-01  1.3055234034496E+00  5.0898874726988E-01 -1.1989790247225E-01
53  5.2000000000000E-01  1.2987815911839E+00  5.1255438555264E-01 -9.5112225748341E-02
54  5.3000000000000E-01  1.2908908420598E+00  5.1518778931185E-01 -6.7758839384267E-02
55  5.4000000000000E-01  1.2817496993340E+00  5.1713397727355E-01 -3.8217130998137E-02
56  5.5000000000000E-01  1.2712526915342E+00  5.1865239526298E-01 -6.8933787713719E-03
57  5.6000000000000E-01  1.2592920114001E+00  5.2001347080105E-01  2.5784444557994E-02
58  5.7000000000000E-01  1.2457592636233E+00  5.2149499825109E-01  5.9372160552977E-02
59  5.8000000000000E-01  1.2305472596892E+00  5.2337839772895E-01  9.3415101205478E-02
60  5.9000000000000E-01  1.2135518373688E+00  5.2594489278381E-01  1.2745398354442E-01
61  6.0000000000000E-01  1.1946736819314E+00  5.2947165310614E-01  1.6103087153713E-01
62  6.1000000000000E-01  1.1738201259663E+00  5.3422794920077E-01  1.9369515255351E-01
63  6.2000000000000E-01  1.1509069048033E+00  5.4047136606061E-01  2.2500945500327E-01
64  6.3000000000000E-01  1.1258598449313E+00  5.4844412239221E-01  2.5455543398822E-01
65  6.4000000000000E-01  1.0986164635032E+00  5.5836954087167E-01  2.8193935295080E-01
66  6.5000000000000E-01  1.0691274579994E+00  5.7044871326673E-01  3.0679739132813E-01
67  6.6000000000000E-01  1.0373580663762E+00  5.8485740206114E-01  3.2880061112738E-01
68  6.7000000000000E-01  1.0032892795378E+00  6.0174321748714E-01  3.4765951909107E-01
69  6.8000000000000E-01  9.6691888972719E-01  6.2122310564839E-01  3.6312816567323E-01
70  6.9000000000000E-01  9.2826236040426E-01  6.4338117973263E-01  3.7500772735699E-01
71  7.0000000000000E-01  8.8735350534427E-01  6.6826692222348E-01  3.8314952483869E-01
72  7.1000000000000E-01  8.4424496702226E-01  6.9589378157634E-01  3.8745743621353E-01
73  7.2000000000000E-01  7.9900848681145E-01  7.2623818207722E-01  3.8788967144924E-01
74  7.3000000000000E-01  7.5173496208698E-01  7.5923896062849E-01  3.8445988202450E-01
75  7.4000000000000E-01  7.0253428795530E-01  7.9479723905616E-01  3.7723758756067E-01
76  7.5000000000000E-01  6.5153498398395E-01  8.3277673529262E-01  3.6634790947021E-01
77  7.6000000000000E-01  5.9888360895638E-01  8.7300451151021E-01  3.5197061000225E-01
78  7.7000000000000E-01  5.4474396927517E-01  9.1527215205800E-01  3.3433844345080E-01
79  7.8000000000000E-01  4.8929612915881E-01  9.5933735893147E-01  3.1373483463321E-01
80  7.9000000000000E-01  4.3273523317631E-01  1.0049259475772E+00  2.9049090790593E-01
81  8.0000000000000E-01  3.7527015391439E-01  1.0517342211472E+00  2.6498189788871E-01
82  8.1000000000000E-01  3.1712197963739E-01  1.0994316969460E+00  2.3762298059992E-01
83  8.2000000000000E-01  2.5852235865331E-01  1.1476641548080E+00  2.0886457078291E-01
84  8.3000000000000E-01  1.9971171871618E-01  1.1960569735581E+00  1.7918713774055E-01
85  8.4000000000000E-01  1.4093738115088E-01  1.2442187185818E+00  1.4909559791340E-01
86  8.5000000000000E-01  8.2451590466722E-02  1.2917449409131E+00  1.1911334767185E-01
87  8.6000000000000E-01  2.4509481017072E-02  1.3382221461453E+00  8.9776004294120E-02
88  8.7000000000000E-01 -3.2632997244542E-02  1.3832318899232E+00  6.1624926815808E-02
89  8.8000000000000E-01 -8.8721171668034E-02  1.4263549557738E+00  3.5200591342281E-02
90  8.9000000000000E-01 -1.4350373632962E-01  1.4671755705925E+00  1.1035897488017E-02
91  9.0000000000000E-01 -1.9673481622724E-01  1.5052856131989E+00 -1.0350516159808E-02
92  9.1000000000000E-01 -2.4817598517222E-01  1.5402887720037E+00 -2.8460869255098E-02
93  9.2000000000000E-01 -2.9759821722851E-01  1.5718046089426E+00 -4.2824671698371E-02
94  9.3000000000000E-01 -3.4478375271552E-01  1.5994724884119E+00 -5.3004913749295E-02
95  9.4000000000000E-01 -3.8952786116361E-01  1.6229553319266E+00 -5.8603939514994E-02
96  9.5000000000000E-01 -4.3164048516035E-01  1.6419431615662E+00 -5.9268931734240E-02
97  9.6000000000000E-01 -4.7094775072056E-01  1.6561563979250E+00 -5.4696939090083E-02
98  9.7000000000000E-01 -5.0729333161126E-01  1.6653488811680E+00 -4.4639381185645E-02
99  9.8000000000000E-01 -5.4053965693016E-01  1.6693105868546E+00 -2.8905970763565E-02
100  9.9000000000000E-01 -5.7056895313187E-01  1.6678700113668E+00 -7.3679976821035E-03
101  1.0000000000000E+00 -5.9728411357787E-01  1.6608962049898E+00  2.0039075481153E-02
102  1.0100000000000E+00 -6.2060939052053E-01  1.6483004338951E+00  5.3313750572407E-02
103  1.0200000000000E+00 -6.4049090617593E-01  1.6300374553998E+00  9.2387402027289E-02
104  1.0300000000000E+00 -6.5689698116844E-01  1.6061063938840E+00  1.3712398788903E-01
105  1.0400000000000E+00 -6.6981828010586E-01  1.5765512075926E+00  1.8732058874671E-01
106  1.0500000000000E+00 -6.7926777535128E-01  1.5414607392075E+00  2.4270879253325E-01
107  1.0600000000000E+00 -6.8528053117616E-01  1.5009683455449E+00  3.0295693560382E-01
108  1.0700000000000E+00 -6.8791331140128E-01  1.4552511040033E+00  3.6767320253665E-01
109  1.0800000000000E+00 -6.8724401436137E-01  1.4045285954998E+00  4.3640957852113E-01
110  1.0900000000000E+00 -6.8337093957470E-01  1.3490612656278E+00  5.0866663893207E-01
111  1.1000000000000E+00 -6.7641189088604E-01  1.2891483677188E+00  5.8389915049965E-01
112  1.1100000000000E+00 -6.6650312111594E-01  1.2251254935019E+00  6.6152244718295E-01
113  1.1200000000000E+00 -6.5379812344297E-01  1.1573616992439E+00  7.4091953116209E-01
114  1.1300000000000E+00 -6.3846627493314E-01  1.0862562377986E+00  8.2144883492521E-01
115  1.1400000000000E+00 -6.2069133789436E-01  1.0122349100612E+00  9.0245256395172E-01
116  1.1500000000000E+00 -6.0066982517722E-01  9.3574605318645E-01  9.8326552041044E-01
117  1.1600000000000E+00 -5.7860923627672E-01  8.5725618779548E-01  1.0632242863037E+00
118  1.1700000000000E+00 -5.5472617226299E-01  7.7724535263910E-01  1.1416766188220E+00
119  1.1800000000000E+00 -5.2924433932735E-01  6.9620216309311E-01  1.2179908809323E+00
120  1.1900000000000E+00 -5.0239245326636E-01  6.1461863986730E-01  1.2915652955669E+00
121  1.2000000000000E+00 -4.7440206074428E-01  5.3298486686066E-01  1.3618367714559E+00
122  1.2100000000000E+00 -4.4550529787363E-01  4.5178355258025E-01  1.4282890021134E+00
123  1.2200000000000E+00 -4.1593261286204E-01  3.7148458873107E-01  1.4904594851754E+00
124  1.2300000000000E+00 -3.8591048735150E-01  2.9253972270734E-01  1.5479450472350E+00
125  1.2400000000000E+00 -3.5565920106790E-01  2.1537748882038E-01  1.6004053873566E+00
126  1.2500000000000E+00 -3.2539069677175E-01  1.4039857666454E-01  1.6475640700944E+00
127  1.2600000000000E+00 -2.9530661754710E-01  6.7971854641960E-02  1.6892063051646E+00
128  1.2700000000000E+00 -2.6559660684185E-01 -1.5686861907801E-03  1.7251727431826E+00
129  1.2800000000000E+00 -2.3643698353430E-01 -6.7925747957069E-02  1.7553483953193E+00
130  1.2900000000000E+00 -2.0798993023224E-01 -1.3083891766834E-01  1.7796456467105E+00
131  1.3000000000000E+00 -1.8040335976545E-01 -1.9008278870496E-01  1.7979802937166E+00
132  1.3100000000000E+00 -1.5381168837379E-01 -2.4546239702989E-01  1.8102385271187E+00
133  1.3200000000000E+00 -1.2833658865428E-01 -2.9680891115197E-01  1.8162652057664E+00
134  1.3300000000000E+00 -1.0408524844233E-01 -3.4398360585242E-01  1.8159276649109E+00
135  1.3400000000000E+00 -8.1149196706506E-02 -3.8688104433892E-01  1.8091499429875E+00
136  1.3500000000000E+00 -5.9604310507512E-02 -4.2542899484407E-01  1.7959122927055E+00
137  1.3600000000000E+00 -3.9510951517655E-02 -4.5958808547353E-01  1.7762507622585E+00
138  1.3700000000000E+00 -2.0914250328597E-02 -4.8935113757875E-01  1.7502560087715E+00
139  1.3800000000000E+00 -3.8445222287130E-03 -5.1474221629810E-01  1.7180716291879E+00
140  1.3900000000000E+00  1.1682194786095E-02 -5.3581541584954E-01  1.6798920182131E+00
141  1.4000000000000E+00  2.5663490511468E-02 -5.5265340073354E-01  1.6359597837514E+00
142  1.4100000000000E+00  3.8109833186078E-02 -5.6536572605801E-01  1.5865627543457E+00
143  1.4200000000000E+00  4.9043732653226E-02 -5.7408696189497E-01  1.5320306166977E+00
144  1.4300000000000E+00  5.8498828925411E-02 -5.7897464792011E-01  1.4727312243095E+00
145  1.4400000000000E+00  6.6518919388402E-02 -5.8020710554551E-01  1.4090666206509E+00
146  1.4500000000000E+00  7.3156938072332E-02 -5.7798113543567E-01  1.3414688224507E+00
147  1.4600000000000E+00  7.8473900392209E-02 -5.7250962850828E-01  1.2703954097977E+00
148  1.4700000000000E+00  8.2537826593605E-02 -5.6401911846952E-01  1.1963249706987E+00
149  1.4800000000000E+00  8.5422656809536E-02 -5.5274730354790E-01  1.1197524481367E+00
150  1.4900000000000E+00  8.7207170118263E-02 -5.3894056428555E-01  1.0411844370908E+00
151  1.5000000000000E+00  8.7973919402759E-02 -5.2285150334318E-01  9.6113447875731E-01
152  1.5100000000000E+00  8.7808192933838E-02 -5.0473653162813E-01  8.8011839662438E-01
153  1.5200000000000E+00  8.6797013109580E-02 -4.8485352458607E-01  7.9864972138111E-01
154  1.5300000000000E+00  8.5028181160246E-02 -4.6345956887438E-01  7.1723524266916E-01
155  1.5400000000000E+00  8.2589375771031E-02 -4.4080881820981E-01  6.3637072509654E-01
156  1.5500000000000E+00  7.9567313975021E-02 -4.1715047933365E-01  5.5653683882913E-01
157  1.5600000000000E+00  7.6046978181450E-02 -3.9272693738548E-01  4.7819531718827E-01
158  1.5700000000000E+00  7.2110915679152E-02 -3.6777203796702E-01  4.0178538824475E-01
159  1.5800000000000E+00  6.7838613366537E-02 -3.4250953402401E-01  3.2772049883550E-01
160  1.5900000000000E+00  6.3305950261111E-02 -3.1715170604428E-01  2.5638535584025E-01
161  1.6000000000000E+00  5.8584728965221E-02 -2.9189816105454E-01  1.8813330331973E-01
162  1.6100000000000E+00  5.3742286185362E-02 -2.6693481365256E-01  1.2328405052460E-01
163  1.6200000000000E+00  4.8841181324442E-02 -2.4243304998915E-01  6.2121761660396E-02
164  1.6300000000000E+00  4.3938961229066E-02 -2.1854907358661E-01  4.8935148015651E-03
165  1.6400000000000E+00  3.9087998228031E-02 -1.9542342974043E-01 -4.8191866799694E-02
166  1.6500000000000E+00  3.4335397789157E-02 -1.7318070338565E-01 -9.6964611391955E-02
167  1.6600000000000E+00  2.9722971436986E-02 -1.5192938367535E-01 -1.4129442707608E-01
168  1.6700000000000E+00  2.5287269913321E-02 -1.3176188685701E-01 -1.8109056923632E-01
169  1.6800000000000E+00  2.1059671103631E-02 -1.1275472780490E-01 -2.1630155726999E-01
170  1.6900000000000E+00  1.7066516818163E-02 -9.4968829315358E-02 -2.4691455405517E-01
171  1.7000000000000E+00  1.3329292281795E-02 -7.8449957451813E-02 -2.7295442393161E-01
172  1.7100000000000E+00  9.8648419838019E-03 -6.3229270410222E-02 -2.9448248760672E-01
173  1.7200000000000E+00  6.6856154826336E-03 -4.9323967866869E-02 -3.1159499446282E-01
174  1.7300000000000E+00  3.7999368363015E-03 -3.6738027531046E-02 -3.2442133435782E-01
175  1.7400000000000E+00  1.2122914376808E-03 -2.5463015418251E-02 -3.3312201275636E-01
176  1.7500000000000E+00 -1.0763757199761E-03 -1.5478956455006E-02 -3.3788641417093E-01
177  1.7600000000000E+00 -3.0683559504870E-03 -6.7552523976949E-03 -3.3893037950743E-01
178  1.7700000000000E+00 -4.7688728631402E-03  7.4836724175583E-04 -3.3649362760246E-01
179  1.7800000000000E+00 -6.1857799673495E-03  7.0808655074922E-03 -3.3083702881959E-01
180  1.7900000000000E+00 -7.3292725444165E-03  1.2298921357152E-02 -3.2223980625343E-01
181  1.8000000000000E+00 -8.2116054466833E-03  1.6465937436813E-02 -3.1099662113511E-01
182  1.8100000000000E+00 -8.8468299857125E-03  1.9651066401306E-02 -2.9741462689939E-01
183  1.8200000000000E+00 -9.2505486966083E-03  2.1928255511234E-02 -2.8181049579788E-01
184  1.8300000000000E+00 -9.4396893934508E-03  2.3375316089605E-02 -2.6450743986156E-01
185  1.8400000000000E+00 -9.4323012046386E-03  2.4073027948994E-02 -2.4583225792189E-01
186  1.8500000000000E+00 -9.2473728612487E-03  2.4104283417319E-02 -2.2611242861945E-01
187  1.8600000000000E+00 -8.9046736536028E-03  2.3553276265052E-02 -2.0567327212534E-01
188  1.8700000000000E+00 -8.4246145306980E-03  2.2504735425494E-02 -1.8483519636469E-01
189  1.8800000000000E+00 -7.8281410207136E-03  2.1043228743796E-02 -1.6391107297726E-01
190  1.8900000000000E+00 -7.1366707560731E-03  1.9252563692006E-02 -1.4320378956384E-01
191  1.9000000000000E+00 -6.3717787328686E-03  1.7214759887274E-02 -1.2300338099564E-01
192  1.9100000000000E+00 -5.5571640476984E-03  1.5013116631239E-02 -1.0358902709496E-01
193  1.9200000000000E+00 -4.7322007334393E-03  1.2756082714576E-02 -8.5255491395210E-02
194  1.9300000000000E+00 -3.9255114352081E-03  1.0529629440168E-02 -6.8256158155520E-02
195  1.9400000000000E+00 -3.1486461770464E-03  8.3855353653811E-03 -5.2788075654330E-02
196  1.9500000000000E+00 -2.4171099768433E-03  6.3786360517363E-03 -3.9034330145124E-02
197  1.9600000000000E+00 -1.7474049925848E-03  4.5612933340495E-03 -2.7156663280401E-02
198  1.9700000000000E+00 -1.1574542724488E-03  2.9839381670070E-03 -1.7295327028235E-02
199  1.9800000000000E+00 -6.6690251036904E-04  1.6956275066049E-03 -9.5720790229596E-03
200  1.9900000000000E+00 -2.9369784191130E-04  7.3574410612055E-04 -4.0477902662582E-03
201  2.0000000000000E+00 -7.0062121486168E-05  1.7251901728126E-04 -9.2270255734875E-04
202  2.0100000000000E+00  3.4246453967909E-06 -8.4553399058805E-06  4.6051747407726E-05
203  2.0200000000000E+00  7.2521935915727E-07 -1.7569212914196E-06  9.1833305147273E-06
204  2.03 -0.  0. -0.
205  2.04  0. -0.  0.
206  2.05  0. -0.  0.
207  2.06  0.  0.  0.
208  2.07  0.  0.  0.
209  2.08  0.  0.  0.
210  2.09  0.  0.  0.
211  2.10  0.  0.  0.
212  2.11  0.  0.  0.
213  2.12  0.  0.  0.
214  2.13  0.  0.  0.
215  2.14  0.  0.  0.
216  2.15  0.  0.  0.
217  2.16  0.  0.  0.
218  2.17  0.  0.  0.
219  2.18  0.  0.  0.
220  2.19  0.  0.  0.
221  2.20  0.  0.  0.
222  2.21  0.  0.  0.
223  2.22  0.  0.  0.
224  2.23  0.  0.  0.
225  2.24  0.  0.  0.
226  2.25  0.  0.  0.
227  2.26  0.  0.  0.
228  2.27  0.  0.  0.
229  2.28  0.  0.  0.
230  2.29  0.  0.  0.
231  2.30  0.  0.  0.
232  2.31  0.  0.  0.
233  2.32  0.  0.  0.
234  2.33  0.  0.  0.
235  2.34  0.  0.  0.
236  2.35  0.  0.  0.
237  2.36  0.  0.  0.
238  2.37  0.  0.  0.
239  2.38  0.  0.  0.
240  2.39  0.  0.  0.
241  2.40  0.  0.  0.
242  2.41  0.  0.  0.
243  2.42  0.  0.  0.
244  2.43  0.  0.  0.
245  2.44  0.  0.  0.
246  2.45  0.  0.  0.
247  2.46  0.  0.  0.
248  2.47  0.  0.  0.
249  2.48  0.  0.  0.
250  2.49  0.  0.  0.
251  2.50  0.  0.  0.
252  2.51  0.  0.  0.
253  2.52  0.  0.  0.
254  2.53  0.  0.  0.
255  2.54  0.  0.  0.
256  2.55  0.  0.  0.
257  2.56  0.  0.  0.
258  2.57  0.  0.  0.
259  2.58  0.  0.  0.
260  2.59  0.  0.  0.
261  2.60  0.  0.  0.
262  2.61  0.  0.  0.
263  2.62  0.  0.  0.
264  2.63  0.  0.  0.
265  2.64  0.  0.  0.
266  2.65  0.  0.  0.
267  2.66  0.  0.  0.
268  2.67  0.  0.  0.
269  2.68  0.  0.  0.
270  2.69  0.  0.  0.
271  2.70  0.  0.  0.
272  2.71  0.  0.  0.
273  2.72  0.  0.  0.
274  2.73  0.  0.  0.
275  2.74  0.  0.  0.
276  2.75  0.  0.  0.
277  2.76  0.  0.  0.
278  2.77  0.  0.  0.
279  2.78  0.  0.  0.
280  2.79  0.  0.  0.
281  2.80  0.  0.  0.
282  2.81  0.  0.  0.
283  2.82  0.  0.  0.
284  2.83  0.  0.  0.
285  2.84  0.  0.  0.
286  2.85  0.  0.  0.
287  2.86  0.  0.  0.
288  2.87  0.  0.  0.
289  2.88  0.  0.  0.
290  2.89  0.  0.  0.
291  2.90  0.  0.  0.
292  2.91  0.  0.  0.
293  2.92  0.  0.  0.
294  2.93  0.  0.  0.
295  2.94  0.  0.  0.
296  2.95  0.  0.  0.
297  2.96  0.  0.  0.
298  2.97  0.  0.  0.
299  2.98  0.  0.  0.
300  2.99  0.  0.  0.
301  3.00  0.  0.  0.
302  3.01  0.  0.  0.
303  3.02  0.  0.  0.
304  3.03  0.  0.  0.
305  3.04  0.  0.  0.
306  3.05  0.  0.  0.
307  3.06  0.  0.  0.
308  3.07  0.  0.  0.
309  3.08  0.  0.  0.
310  3.09  0.  0.  0.
311  3.10  0.  0.  0.
312  3.11  0.  0.  0.
313  3.12  0.  0.  0.
314  3.13  0.  0.  0.
315  3.14  0.  0.  0.
316  3.15  0.  0.  0.
317  3.16  0.  0.  0.
318  3.17  0.  0.  0.
319  3.18  0.  0.  0.
320  3.19  0.  0.  0.
321  3.20  0.  0.  0.
322  3.21  0.  0.  0.
323  3.22  0.  0.  0.
324  3.23  0.  0.  0.
325  3.24  0.  0.  0.
326  3.25  0.  0.  0.
327  3.26  0.  0.  0.
328  3.27  0.  0.  0.
329  3.28  0.  0.  0.
330  3.29  0.  0.  0.
331  3.30  0.  0.  0.
332  3.31  0.  0.  0.
333  3.32  0.  0.  0.
334  3.33  0.  0.  0.
335  3.34  0.  0.  0.
336  3.35  0.  0.  0.
337  3.36  0.  0.  0.
338  3.37  0.  0.  0.
339  3.38  0.  0.  0.
340  3.39  0.  0.  0.
341  3.40  0.  0.  0.
342  3.41  0.  0.  0.
343  3.42  0.  0.  0.
344  3.43  0.  0.  0.
345  3.44  0.  0.  0.
346  3.45  0.  0.  0.
347  3.46  0.  0.  0.
348  3.47  0.  0.  0.
349  3.48  0.  0.  0.
350  3.49  0.  0.  0.
351  3.50  0.  0.  0.
352  3.51  0.  0.  0.
353  3.52  0.  0.  0.
354  3.53  0.  0.  0.
355  3.54  0.  0.  0.
356  3.55  0.  0.  0.
357  3.56  0.  0.  0.
358  3.57  0.  0.  0.
359  3.58  0.  0.  0.
360  3.59  0.  0.  0.
361  3.60  0.  0.  0.
362  3.61  0.  0.  0.
363  3.62  0.  0.  0.
364  3.63  0.  0.  0.
365  3.64  0.  0.  0.
366  3.65  0.  0.  0.
367  3.66  0.  0.  0.
368  3.67  0.  0.  0.
369  3.68  0.  0.  0.
370  3.69  0.  0.  0.
371  3.70  0.  0.  0.
372  3.71  0.  0.  0.
373  3.72  0.  0.  0.
374  3.73  0.  0.  0.
375  3.74  0.  0.  0.
376  3.75  0.  0.  0.
377  3.76  0.  0.  0.
378  3.77  0.  0.  0.
379  3.78  0.  0.  0.
380  3.79  0.  0.  0.
381  3.80  0.  0.  0.
382  3.81  0.  0.  0.
383  3.82  0.  0.  0.
384  3.83  0.  0.  0.
385  3.84  0.  0.  0.
386  3.85  0.  0.  0.
387  3.86  0.  0.  0.
388  3.87  0.  0.  0.
389  3.88  0.  0.  0.
390  3.89  0.  0.  0.
391  3.90  0.  0.  0.
392  3.91  0.  0.  0.
393  3.92  0.  0.  0.
394  3.93  0.  0.  0.
395  3.94  0.  0.  0.
396  3.95  0.  0.  0.
397  3.96  0.  0.  0.
398  3.97  0.  0.  0.
399  3.98  0.  0.  0.
400  3.99  0.  0.  0.
401  4.00  0.  0.  0.
402  4.01  0.  0.  0.
403  4.02  0.  0.  0.
404  4.03  0.  0.  0.
405  4.04  0.  0.  0.
406  4.05  0.  0.  0.
407  4.06  0.  0.  0.
408  4.07  0.  0.  0.
409  4.08  0.  0.  0.
410  4.09  0.  0.  0.
411  4.10  0.  0.  0.
412  4.11  0.  0.  0.
413  4.12  0.  0.  0.
414  4.13  0.  0.  0.
415  4.14  0.  0.  0.
416  4.15  0.  0.  0.
417  4.16  0.  0.  0.
418  4.17  0.  0.  0.
419  4.18  0.  0.  0.
420  4.19  0.  0.  0.
421  4.20  0.  0.  0.
422  4.21  0.  0.  0.
423  4.22  0.  0.  0.
424  4.23  0.  0.  0.
425  4.24  0.  0.  0.
426  4.25  0.  0.  0.
427  4.26  0.  0.  0.
428  4.27  0.  0.  0.
429  4.28  0.  0.  0.
430  4.29  0.  0.  0.
431  4.30  0.  0.  0.
432  4.31  0.  0.  0.
433  4.32  0.  0.  0.
434  4.33  0.  0.  0.
435  4.34  0.  0.  0.
436  4.35  0.  0.  0.
437  4.36  0.  0.  0.
438  4.37  0.  0.  0.
439  4.38  0.  0.  0.
440  4.39  0.  0.  0.
441  4.40  0.  0.  0.
442  4.41  0.  0.  0.
443  4.42  0.  0.  0.
444  4.43  0.  0.  0.
445  4.44  0.  0.  0.
446  4.45  0.  0.  0.
447  4.46  0.  0.  0.
448  4.47  0.  0.  0.
449  4.48  0.  0.  0.
450  4.49  0.  0.  0.
451  4.50  0.  0.  0.
452  4.51  0.  0.  0.
453  4.52  0.  0.  0.
454  4.53  0.  0.  0.
455  4.54  0.  0.  0.
456  4.55  0.  0.  0.
457  4.56  0.  0.  0.
458  4.57  0.  0.  0.
459  4.58  0.  0.  0.
460  4.59  0.  0.  0.
461  4.60  0.  0.  0.
462  4.61  0.  0.  0.
463  4.62  0.  0.  0.
464  4.63  0.  0.  0.
465  4.64  0.  0.  0.
466  4.65  0.  0.  0.
467  4.66  0.  0.  0.
468  4.67  0.  0.  0.
469  4.68  0.  0.  0.
470  4.69  0.  0.  0.
471  4.70  0.  0.  0.
472  4.71  0.  0.  0.
473  4.72  0.  0.  0.
474  4.73  0.  0.  0.
475  4.74  0.  0.  0.
476  4.75  0.  0.  0.
477  4.76  0.  0.  0.
478  4.77  0.  0.  0.
479  4.78  0.  0.  0.
480  4.79  0.  0.  0.
481  4.80  0.  0.  0.
482  4.81  0.  0.  0.
483  4.82  0.  0.  0.
484  4.83  0.  0.  0.
485  4.84  0.  0.  0.
486  4.85  0.  0.  0.
487  4.86  0.  0.  0.
488  4.87  0.  0.  0.
489  4.88  0.  0.  0.
490  4.89  0.  0.  0.
491  4.90  0.  0.  0.
492  4.91  0.  0.  0.
493  4.92  0.  0.  0.
494  4.93  0.  0.  0.
495  4.94  0.  0.  0.
496  4.95  0.  0.  0.
497  4.96  0.  0.  0.
498  4.97  0.  0.  0.
499  4.98  0.  0.  0.
500  4.99  0.  0.  0.
501  5.00  0.  0.  0.
502  5.01  0.  0.  0.
503  5.02  0.  0.  0.
504  5.03  0.  0.  0.
505  5.04  0.  0.  0.
506  5.05  0.  0.  0.
507  5.06  0.  0.  0.
508  5.07  0.  0.  0.
509  5.08  0.  0.  0.
510  5.09  0.  0.  0.
511  5.10  0.  0.  0.
512  5.11  0.  0.  0.
513  5.12  0.  0.  0.
514  5.13  0.  0.  0.
515  5.14  0.  0.  0.
516  5.15  0.  0.  0.
517  5.16  0.  0.  0.
518  5.17  0.  0.  0.
519  5.18  0.  0.  0.
520  5.19  0.  0.  0.
521  5.20  0.  0.  0.
522  5.21  0.  0.  0.
523  5.22  0.  0.  0.
524  5.23  0.  0.  0.
525  5.24  0.  0.  0.
526  5.25  0.  0.  0.
527  5.26  0.  0.  0.
528  5.27  0.  0.  0.
529  5.28  0.  0.  0.
530  5.29  0.  0.  0.
531  5.30  0.  0.  0.
532  5.31  0.  0.  0.
533  5.32  0.  0.  0.
534  5.33  0.  0.  0.
535  5.34  0.  0.  0.
536  5.35  0.  0.  0.
537  5.36  0.  0.  0.
538  5.37  0.  0.  0.
539  5.38  0.  0.  0.
540  5.39  0.  0.  0.
541  5.40  0.  0.  0.
542  5.41  0.  0.  0.
543  5.42  0.  0.  0.
544  5.43  0.  0.  0.
545  5.44  0.  0.  0.
546  5.45  0.  0.  0.
547  5.46  0.  0.  0.
548  5.47  0.  0.  0.
549  5.48  0.  0.  0.
550  5.49  0.  0.  0.
551  5.50  0.  0.  0.
552  5.51  0.  0.  0.
553  5.52  0.  0.  0.
554  5.53  0.  0.  0.
555  5.54  0.  0.  0.
556  5.55  0.  0.  0.
557  5.56  0.  0.  0.
558  5.57  0.  0.  0.
559  5.58  0.  0.  0.
560  5.59  0.  0.  0.
561  5.60  0.  0.  0.
562  5.61  0.  0.  0.
563  5.62  0.  0.  0.
564  5.63  0.  0.  0.
565  5.64  0.  0.  0.
566  5.65  0.  0.  0.
567  5.66  0.  0.  0.
568  5.67  0.  0.  0.
569  5.68  0.  0.  0.
570  5.69  0.  0.  0.
571  5.70  0.  0.  0.
572  5.71  0.  0.  0.
573  5.72  0.  0.  0.
574  5.73  0.  0.  0.
575  5.74  0.  0.  0.
576  5.75  0.  0.  0.
577  5.76  0.  0.  0.
578  5.77  0.  0.  0.
579  5.78  0.  0.  0.
580  5.79  0.  0.  0.
581  5.80  0.  0.  0.
582  5.81  0.  0.  0.
583  5.82  0.  0.  0.
584  5.83  0.  0.  0.
585  5.84  0.  0.  0.
586  5.85  0.  0.  0.
587  5.86  0.  0.  0.
588  5.87  0.  0.  0.
589  5.88  0.  0.  0.
590  5.89  0.  0.  0.
591  5.90  0.  0.  0.
592  5.91  0.  0.  0.
593  5.92  0.  0.  0.
594  5.93  0.  0.  0.
595  5.94  0.  0.  0.
596  5.95  0.  0.  0.
597  5.96  0.  0.  0.
598  5.97  0.  0.  0.
599  5.98  0.  0.  0.
600  5.99  0.  0.  0.
1                         7.4279547922316E+00  8.5666125300331E-01
1  0.0000000000000E+00  6.3204719236154E-11 -1.1910921068892E-09
2  1.0000000000000E-02  1.1446170321613E-03 -8.1614599194250E-04
3  2.0000000000000E-02  4.5748049593656E-03 -3.2573908269959E-03
4  3.0000000000000E-02  1.0279587413637E-02 -7.3022228671452E-03
5  4.0000000000000E-02  1.8240714226678E-02 -1.2915014710233E-02
6  5.0000000000000E-02  2.8432727021886E-02 -2.0046359015562E-02
7  6.0000000000000E-02  4.0823050887307E-02 -2.8633534337872E-02
8  7.0000000000000E-02  5.5372111962650E-02 -3.8601096673380E-02
9  8.0000000000000E-02  7.2033480710231E-02 -4.9861591230493E-02
10  9.0000000000000E-02  9.0754040565986E-02 -6.2316377776197E-02
11  1.0000000000000E-01  1.1147418158014E-01 -7.5856561782437E-02
12  1.1000000000000E-01  1.3412801855748E-01 -9.0364022515782E-02
13  1.2000000000000E-01  1.5864363309318E-01 -1.0571252818408E-01
14  1.3000000000000E-01  1.8494333877173E-01 -1.2176892728743E-01
15  1.4000000000000E-01  2.1294396865504E-01 -1.3839440442556E-01
16  1.5000000000000E-01  2.4255718403107E-01 -1.5544578800222E-01
17  1.6000000000000E-01  2.7368980322918E-01 -1.7277689654717E-01
18  1.7000000000000E-01  3.0624414913466E-01 -1.9023990976310E-01
19  1.8000000000000E-01  3.4011841385507E-01 -2.0768674990524E-01
20  1.9000000000000E-01  3.7520703880925E-01 -2.2497045873074E-01
21  2.0000000000000E-01  4.1140110832888E-01 -2.4194655502068E-01
22  2.1000000000000E-01  4.4858875468722E-01 -2.5847435759300E-01
23  2.2000000000000E-01  4.8665557230376E-01 -2.7441825879686E-01
24  2.3000000000000E-01  5.2548503872208E-01 -2.8964893371847E-01
25  2.4000000000000E-01  5.6495893982518E-01 -3.0404447074050E-01
26  2.5000000000000E-01  6.0495779664269E-01 -3.1749140968842E-01
27  2.6000000000000E-01  6.4536129102226E-01 -3.2988567456991E-01
28  2.7000000000000E-01  6.8604868738579E-01 -3.4113338886976E-01
29  2.8000000000000E-01  7.2689924777560E-01 -3.5115156249967E-01
30  2.9000000000000E-01  7.6779263741681E-01 -3.5986864081747E-01
31  3.0000000000000E-01  8.0860931808447E-01 -3.6722490761502E-01
32  3.1000000000000E-01  8.4923092666767E-01 -3.7317273561877E-01
33  3.2000000000000E-01  8.8954063646937E-01 -3.7767667983885E-01
34  3.3000000000000E-01  9.2942349897023E-01 -3.8071341102387E-01
35  3.4000000000000E-01  9.6876676401517E-01 -3.8227148851168E-01
36  3.5000000000000E-01  1.0074601766527E+00 -3.8235097388653E-01
37  3.6000000000000E-01  1.0453962491645E+00 -3.8096288903646E-01
38  3.7000000000000E-01  1.0824705071627E+00 -3.7812852442341E-01
39  3.8000000000000E-01  1.1185817090039E+00 -3.7387860560047E-01
40  3.9000000000000E-01  1.1536320381567E+00 -3.6825232820642E-01
41  4.0000000000000E-01  1.1875272685717E+00 -3.6129627380099E-01
42  4.1000000000000E-01  1.2201769035179E+00 -3.5306322094244E-01
43  4.2000000000000E-01  1.2514942887700E+00 -3.4361086781623E-01
44  4.3000000000000E-01  1.2813967014409E+00 -3.3300048446460E-01
45  4.4000000000000E-01  1.3098054161570E+00 -3.2129551420923E-01
46  4.5000000000000E-01  1.3366457506420E+00 -3.0856014516771E-01