Tm    ONCVPSP-4.0.1  r_core=   2.00859   1.60017   1.90331   1.40285
69.0000     23.0000      241101    zatom,zion,pspd
8      11   3     4   600     0    pspcod,pspxc,lmax,lloc,mmax,r2well
5.99000000  4.00000000  0.00000000    rchrg fchrg qchrg
2     2     2     2     0    nproj
1     1           extension_switch
0                         6.9389173767119E+00  9.7904129804476E-01
1  0.0000000000000E+00  7.4406703021168E-11 -2.1001170594226E-10
2  1.0000000000000E-02  4.4722867342060E-02 -2.8236269661682E-03
3  2.0000000000000E-02  8.9412895542319E-02 -5.6741052641283E-03
4  3.0000000000000E-02  1.3403710339811E-01 -8.5777779342971E-03
5  4.0000000000000E-02  1.7856222756483E-01 -1.1559976910982E-02
6  5.0000000000000E-02  2.2295458641558E-01 -1.4644531107227E-02
7  6.0000000000000E-02  2.6717994976429E-01 -1.7853290715265E-02
8  7.0000000000000E-02  3.1120341631914E-01 -2.1205672879397E-02
9  8.0000000000000E-02  3.5498930065824E-01 -2.4718233688115E-02
10  9.0000000000000E-02  3.9850103142810E-01 -2.8404271173322E-02
11  1.0000000000000E-01  4.4170106235656E-01 -3.2273463698862E-02
12  1.1000000000000E-01  4.8455079754826E-01 -3.6331547771180E-02
13  1.2000000000000E-01  5.2701053239144E-01 -4.0580038914728E-02
14  1.3000000000000E-01  5.6903941125319E-01 -4.5015998827437E-02
15  1.4000000000000E-01  6.1059540297566E-01 -4.9631851571022E-02
16  1.5000000000000E-01  6.5163529501119E-01 -5.4415251061212E-02
17  1.6000000000000E-01  6.9211470685001E-01 -5.9349001608966E-02
18  1.7000000000000E-01  7.3198812320293E-01 -6.4411032729783E-02
19  1.8000000000000E-01  7.7120894720377E-01 -6.9574428889500E-02
20  1.9000000000000E-01  8.0972957369542E-01 -7.4807514296809E-02
21  2.0000000000000E-01  8.4750148245937E-01 -8.0073992289942E-02
22  2.1000000000000E-01  8.8447535104475E-01 -8.5333138303560E-02
23  2.2000000000000E-01  9.2060118665064E-01 -9.0540044846592E-02
24  2.3000000000000E-01  9.5582847631587E-01 -9.5645916378636E-02
25  2.4000000000000E-01  9.9010635447690E-01 -1.0059841144652E-01
26  2.5000000000000E-01  1.0233837867673E+00 -1.0534202893898E-01
27  2.6000000000000E-01  1.0556097687543E+00 -1.0981853484175E-01
28  2.7000000000000E-01  1.0867335381402E+00 -1.1396742543162E-01
29  2.8000000000000E-01  1.1167047988018E+00 -1.1772642244210E-01
30  2.9000000000000E-01  1.1454739548970E+00 -1.2103199536864E-01
31  3.0000000000000E-01  1.1729923531459E+00 -1.2381990576203E-01
32  3.1000000000000E-01  1.1992125312780E+00 -1.2602576808930E-01
33  3.2000000000000E-01  1.2240884705499E+00 -1.2758562152367E-01
34  3.3000000000000E-01  1.2475758501626E+00 -1.2843650686355E-01
35  3.4000000000000E-01  1.2696323013520E+00 -1.2851704267594E-01
36  3.5000000000000E-01  1.2902176588982E+00 -1.2776799471466E-01
37  3.6000000000000E-01  1.3092942077797E+00 -1.2613283267941E-01
38  3.7000000000000E-01  1.3268269227151E+00 -1.2355826845845E-01
39  3.8000000000000E-01  1.3427836983600E+00 -1.1999477013583E-01
40  3.9000000000000E-01  1.3571355679817E+00 -1.1539704624311E-01
41  4.0000000000000E-01  1.3698569085066E+00 -1.0972449499368E-01
42  4.1000000000000E-01  1.3809256299306E+00 -1.0294161355463E-01
43  4.2000000000000E-01  1.3903233471952E+00 -9.5018362782636E-02
44  4.3000000000000E-01  1.3980355327677E+00 -8.5930483274997E-02
45  4.4000000000000E-01  1.4040516483162E+00 -7.5659759060237E-02
46  4.5000000000000E-01  1.4083652540368E+00 -6.4194225771125E-02
47  4.6000000000000E-01  1.4109740943794E+00 -5.1528320701661E-02
48  4.7000000000000E-01  1.4118801591143E+00 -3.7662972743134E-02
49  4.8000000000000E-01  1.4110897188966E+00 -2.2605630818125E-02
50  4.9000000000000E-01  1.4086133347047E+00 -6.3702300779422E-03
51  5.0000000000000E-01  1.4044658407640E+00  1.1022904206255E-02
52  5.1000000000000E-01  1.3986663008005E+00  2.9547214454010E-02
53  5.2000000000000E-01  1.3912379377145E+00  4.9170129003878E-02
54  5.3000000000000E-01  1.3822080370057E+00  6.9853338800462E-02
55  5.4000000000000E-01  1.3716078245275E+00  9.1553129916077E-02
56  5.5000000000000E-01  1.3594723193862E+00  1.1422076863537E-01
57  5.6000000000000E-01  1.3458401630407E+00  1.3780293520858E-01
58  5.7000000000000E-01  1.3307534258825E+00  1.6224220178833E-01
59  5.8000000000000E-01  1.3142573928011E+00  1.8747754951243E-01
60  5.9000000000000E-01  1.2964003294398E+00  2.1344491918775E-01
61  6.0000000000000E-01  1.2772332310472E+00  2.4007778957512E-01
62  6.1000000000000E-01  1.2568095560030E+00  2.6730777687580E-01
63  6.2000000000000E-01  1.2351849462561E+00  2.9506524868485E-01
64  6.3000000000000E-01  1.2124169370549E+00  3.2327994540739E-01
65  6.4000000000000E-01  1.1885646584652E+00  3.5188160193694E-01
66  6.5000000000000E-01  1.1636885312694E+00  3.8080056227264E-01
67  6.6000000000000E-01  1.1378499599099E+00  4.0996837970778E-01
68  6.7000000000000E-01  1.1111110251880E+00  4.3931839525743E-01
69  6.8000000000000E-01  1.0835341794511E+00  4.6878628710993E-01
70  6.9000000000000E-01  1.0551819469941E+00  4.9831058408441E-01
71  7.0000000000000E-01  1.0261166323726E+00  5.2783313635662E-01
72  7.1000000000000E-01  9.9640003926547E-01  5.5729953707414E-01
73  7.2000000000000E-01  9.6609320244194E-01  5.8665948891956E-01
74  7.3000000000000E-01  9.3525613527902E-01  6.1586711019246E-01
75  7.4000000000000E-01  9.0394759514018E-01  6.4488117556489E-01
76  7.5000000000000E-01  8.7222486876871E-01  6.7366528731590E-01
77  7.6000000000000E-01  8.4014357966819E-01  7.0218797356335E-01
78  7.7000000000000E-01  8.0775751923976E-01  7.3042271078011E-01
79  7.8000000000000E-01  7.7511850322447E-01  7.5834786870027E-01
80  7.9000000000000E-01  7.4227625475818E-01  7.8594657658235E-01
81  8.0000000000000E-01  7.0927831509078E-01  8.1320651069258E-01
82  8.1000000000000E-01  6.7616998275069E-01  8.4011960379592E-01
83  8.2000000000000E-01  6.4299428165335E-01  8.6668167838504E-01
84  8.3000000000000E-01  6.0979195836028E-01  8.9289200633196E-01
85  8.4000000000000E-01  5.7660150839558E-01  9.1875279860315E-01
86  8.5000000000000E-01  5.4345923122190E-01  9.4426862962904E-01
87  8.6000000000000E-01  5.1039931317030E-01  9.6944580185369E-01
88  8.7000000000000E-01  4.7745393731010E-01  9.9429165690197E-01
89  8.8000000000000E-01  4.4465341893863E-01  1.0188138406809E+00
90  8.9000000000000E-01  4.1202636506827E-01  1.0430195305711E+00
91  9.0000000000000E-01  3.7959985599207E-01  1.0669146336551E+00
92  9.1000000000000E-01  3.4739964672183E-01  1.0905029656650E+00
93  9.2000000000000E-01  3.1545038581496E-01  1.1137854210029E+00
94  9.3000000000000E-01  2.8377584884218E-01  1.1367591447900E+00
95  9.4000000000000E-01  2.5239918349774E-01  1.1594167184245E+00
96  9.5000000000000E-01  2.2134316312025E-01  1.1817453705692E+00
97  9.6000000000000E-01  1.9063044517653E-01  1.2037262258426E+00
98  9.7000000000000E-01  1.6028383106584E-01  1.2253336037395E+00
99  9.8000000000000E-01  1.3032652342834E-01  1.2465343804678E+00
100  9.9000000000000E-01  1.0078237699221E-01  1.2672874264280E+00
101  1.0000000000000E+00  7.1676138870488E-02  1.2875431320021E+00
102  1.0100000000000E+00  4.3033674123200E-02  1.3072430341297E+00
103  1.0200000000000E+00  1.4882172335172E-02  1.3263195558411E+00
104  1.0300000000000E+00 -1.2749669072441E-02  1.3446958704710E+00
105  1.0400000000000E+00 -3.9831489075510E-02  1.3622859016978E+00
106  1.0500000000000E+00 -6.6331139062127E-02  1.3789944698187E+00
107  1.0600000000000E+00 -9.2214594782315E-02  1.3947175937844E+00
108  1.0700000000000E+00 -1.1744590825528E-01  1.4093429574608E+00
109  1.0800000000000E+00 -1.4198720347640E-01  1.4227505473496E+00
110  1.0900000000000E+00 -1.6579871953086E-01  1.4348134675689E+00
111  1.1000000000000E+00 -1.8883890442385E-01  1.4453989362631E+00
112  1.1100000000000E+00 -2.1106456257361E-01  1.4543694657450E+00
113  1.1200000000000E+00 -2.3243105847634E-01  1.4615842265748E+00
114  1.1300000000000E+00 -2.5289257853181E-01  1.4669005934052E+00
115  1.1400000000000E+00 -2.7240245241065E-01  1.4701758677761E+00
116  1.1500000000000E+00 -2.9091353463417E-01  1.4712691700611E+00
117  1.1600000000000E+00 -3.0837864622176E-01  1.4700434894737E+00
118  1.1700000000000E+00 -3.2475107532142E-01  1.4663678773463E+00
119  1.1800000000000E+00 -3.3998513467086E-01  1.4601197648230E+00
120  1.1900000000000E+00 -3.5403677252266E-01  1.4511873815776E+00
121  1.2000000000000E+00 -3.6686423229328E-01  1.4394722471634E+00
122  1.2100000000000E+00 -3.7842875465777E-01  1.4248917010991E+00
123  1.2200000000000E+00 -3.8869531407343E-01  1.4073814316873E+00
124  1.2300000000000E+00 -3.9763337979206E-01  1.3868979569079E+00
125  1.2400000000000E+00 -4.0521768926203E-01  1.3634210033681E+00
126  1.2500000000000E+00 -4.1142901943171E-01  1.3369557212388E+00
127  1.2600000000000E+00 -4.1625493883358E-01  1.3075346643486E+00
128  1.2700000000000E+00 -4.1969052039873E-01  1.2752194549408E+00
129  1.2800000000000E+00 -4.2173899175010E-01  1.2401020421479E+00
130  1.2900000000000E+00 -4.2241229621160E-01  1.2023054518555E+00
131  1.3000000000000E+00 -4.2173153390320E-01  1.1619839131891E+00
132  1.3100000000000E+00 -4.1972724809165E-01  1.1193222334298E+00
133  1.3200000000000E+00 -4.1643951740238E-01  1.0745342786560E+00
134  1.3300000000000E+00 -4.1191780949635E-01  1.0278604015953E+00
135  1.3400000000000E+00 -4.0622054643282E-01  9.7956364121719E-01
136  1.3500000000000E+00 -3.9941432609388E-01  9.2992450026971E-01
137  1.3600000000000E+00 -3.9157273774655E-01  8.7923408727077E-01
138  1.3700000000000E+00 -3.8277470299420E-01  8.2778538819533E-01
139  1.3800000000000E+00 -3.7310226550586E-01  7.7586240729592E-01
140  1.3900000000000E+00 -3.6263774363729E-01  7.2372688546862E-01
141  1.4000000000000E+00 -3.5146020353834E-01  6.7160255824433E-01
142  1.4100000000000E+00 -3.3964108005354E-01  6.1965624308117E-01
143  1.4200000000000E+00 -3.2724485017154E-01  5.6800822136088E-01
144  1.4300000000000E+00 -3.1433572402728E-01  5.1677358695368E-01
145  1.4400000000000E+00 -3.0097924335009E-01  4.6607225387504E-01
146  1.4500000000000E+00 -2.8724193120887E-01  4.1602777421482E-01
147  1.4600000000000E+00 -2.7319099652396E-01  3.6676651042342E-01
148  1.4700000000000E+00 -2.5889401336354E-01  3.1841670120951E-01
149  1.4800000000000E+00 -2.4441858738174E-01  2.7110748500574E-01
150  1.4900000000000E+00 -2.2983201200055E-01  2.2496788876330E-01
151  1.5000000000000E+00 -2.1520091722947E-01  1.8012579110691E-01
152  1.5100000000000E+00 -2.0059091412537E-01  1.3670686919565E-01
153  1.5200000000000E+00 -1.8606623788730E-01  9.4833538468617E-02
154  1.5300000000000E+00 -1.7168939314206E-01  5.4623896996377E-02
155  1.5400000000000E+00 -1.5752080393553E-01  1.6190681224564E-02
156  1.5500000000000E+00 -1.4361847210249E-01 -2.0359754667499E-02
157  1.5600000000000E+00 -1.3003764763684E-01 -5.4928423744312E-02
158  1.5700000000000E+00 -1.1683051299356E-01 -8.7424651436283E-02
159  1.5800000000000E+00 -1.0404588549193E-01 -1.1776696594305E-01
160  1.5900000000000E+00 -9.1728940155050E-02 -1.4588392747519E-01
161  1.6000000000000E+00 -7.9920955927702E-02 -1.7171488680164E-01
162  1.6100000000000E+00 -6.8659087834622E-02 -1.9521066506824E-01
163  1.6200000000000E+00 -5.7976167447908E-02 -2.1633414742445E-01
164  1.6300000000000E+00 -4.7900533833439E-02 -2.3506078357438E-01
165  1.6400000000000E+00 -3.8455896859423E-02 -2.5137898930176E-01
166  1.6500000000000E+00 -2.9661234475657E-02 -2.6529044386994E-01
167  1.6600000000000E+00 -2.1530725305768E-02 -2.7681027899835E-01
168  1.6700000000000E+00 -1.4073717541918E-02 -2.8596715626660E-01
169  1.6800000000000E+00 -7.2947348466347E-03 -2.9280323064537E-01
170  1.6900000000000E+00 -1.1935195976142E-03 -2.9737399904465E-01
171  1.7000000000000E+00  4.2348864929661E-03 -2.9974803368664E-01
172  1.7100000000000E+00  9.0000247240533E-03 -3.0000660130038E-01
173  1.7200000000000E+00  1.3115865392725E-02 -2.9824317018420E-01
174  1.7300000000000E+00  1.6600618422130E-02 -2.9456280818018E-01
175  1.7400000000000E+00  1.9476509981412E-02 -2.8908147572407E-01
176  1.7500000000000E+00  2.1769526772770E-02 -2.8192521915034E-01
177  1.7600000000000E+00  2.3509129944730E-02 -2.7322927030203E-01
178  1.7700000000000E+00  2.4727940918123E-02 -2.6313705955109E-01
179  1.7800000000000E+00  2.5461401625661E-02 -2.5179914996370E-01
180  1.7900000000000E+00  2.5747412265044E-02 -2.3937210246140E-01
181  1.8000000000000E+00  2.5625948313045E-02 -2.2601727652286E-01
182  1.8100000000000E+00  2.5138662899097E-02 -2.1189958741446E-01
183  1.8200000000000E+00  2.4328474274328E-02 -1.9718621658984E-01
184  1.8300000000000E+00  2.3239144245292E-02 -1.8204529516207E-01
185  1.8400000000000E+00  2.1914851136416E-02 -1.6664457150858E-01
186  1.8500000000000E+00  2.0399759947927E-02 -1.5115007060051E-01
187  1.8600000000000E+00  1.8737594273548E-02 -1.3572475985018E-01
188  1.8700000000000E+00  1.6971213652344E-02 -1.2052723266222E-01
189  1.8800000000000E+00  1.5142198965209E-02 -1.0571041825438E-01
190  1.8900000000000E+00  1.3290448111038E-02 -9.1420325290491E-02
191  1.9000000000000E+00  1.1453815032702E-02 -7.7794911173772E-02
192  1.9100000000000E+00  9.6675438437687E-03 -6.4962396173540E-02
193  1.9200000000000E+00  7.9626382485207E-03 -5.3036524346074E-02
194  1.9300000000000E+00  6.3681049866776E-03 -4.2122755696036E-02
195  1.9400000000000E+00  4.9112398315217E-03 -3.2319071977741E-02
196  1.9500000000000E+00  3.6153103202469E-03 -2.3709461095289E-02
197  1.9600000000000E+00  2.4996324953498E-03 -1.6364040518222E-02
198  1.9700000000000E+00  1.5793478703074E-03 -1.0338372981738E-02
199  1.9800000000000E+00  8.6560938042893E-04 -5.6752205545311E-03
200  1.9900000000000E+00  3.6189275703413E-04 -2.3802437739715E-03
201  2.0000000000000E+00  8.1310072619868E-05 -5.3753757989374E-04
202  2.0100000000000E+00 -4.0678714598722E-06  2.6998647827007E-05
203  2.0200000000000E+00 -7.9733277297901E-07  5.3085417450657E-06
204  2.03  0. -0.
205  2.04 -0.  0.
206  2.05 -0. -0.
207  2.06  0.  0.
208  2.07  0.  0.
209  2.08  0.  0.
210  2.09  0.  0.
211  2.10  0.  0.
212  2.11  0.  0.
213  2.12  0.  0.
214  2.13  0.  0.
215  2.14  0.  0.
216  2.15  0.  0.
217  2.16  0.  0.
218  2.17  0.  0.
219  2.18  0.  0.
220  2.19  0.  0.
221  2.20  0.  0.
222  2.21  0.  0.
223  2.22  0.  0.
224  2.23  0.  0.
225  2.24  0.  0.
226  2.25  0.  0.
227  2.26  0.  0.
228  2.27  0.  0.
229  2.28  0.  0.
230  2.29  0.  0.
231  2.30  0.  0.
232  2.31  0.  0.
233  2.32  0.  0.
234  2.33  0.  0.
235  2.34  0.  0.
236  2.35  0.  0.
237  2.36  0.  0.
238  2.37  0.  0.
239  2.38  0.  0.
240  2.39  0.  0.
241  2.40  0.  0.
242  2.41  0.  0.
243  2.42  0.  0.
244  2.43  0.  0.
245  2.44  0.  0.
246  2.45  0.  0.
247  2.46  0.  0.
248  2.47  0.  0.
249  2.48  0.  0.
250  2.49  0.  0.
251  2.50  0.  0.
252  2.51  0.  0.
253  2.52  0.  0.
254  2.53  0.  0.
255  2.54  0.  0.
256  2.55  0.  0.
257  2.56  0.  0.
258  2.57  0.  0.
259  2.58  0.  0.
260  2.59  0.  0.
261  2.60  0.  0.
262  2.61  0.  0.
263  2.62  0.  0.
264  2.63  0.  0.
265  2.64  0.  0.
266  2.65  0.  0.
267  2.66  0.  0.
268  2.67  0.  0.
269  2.68  0.  0.
270  2.69  0.  0.
271  2.70  0.  0.
272  2.71  0.  0.
273  2.72  0.  0.
274  2.73  0.  0.
275  2.74  0.  0.
276  2.75  0.  0.
277  2.76  0.  0.
278  2.77  0.  0.
279  2.78  0.  0.
280  2.79  0.  0.
281  2.80  0.  0.
282  2.81  0.  0.
283  2.82  0.  0.
284  2.83  0.  0.
285  2.84  0.  0.
286  2.85  0.  0.
287  2.86  0.  0.
288  2.87  0.  0.
289  2.88  0.  0.
290  2.89  0.  0.
291  2.90  0.  0.
292  2.91  0.  0.
293  2.92  0.  0.
294  2.93  0.  0.
295  2.94  0.  0.
296  2.95  0.  0.
297  2.96  0.  0.
298  2.97  0.  0.
299  2.98  0.  0.
300  2.99  0.  0.
301  3.00  0.  0.
302  3.01  0.  0.
303  3.02  0.  0.
304  3.03  0.  0.
305  3.04  0.  0.
306  3.05  0.  0.
307  3.06  0.  0.
308  3.07  0.  0.
309  3.08  0.  0.
310  3.09  0.  0.
311  3.10  0.  0.
312  3.11  0.  0.
313  3.12  0.  0.
314  3.13  0.  0.
315  3.14  0.  0.
316  3.15  0.  0.
317  3.16  0.  0.
318  3.17  0.  0.
319  3.18  0.  0.
320  3.19  0.  0.
321  3.20  0.  0.
322  3.21  0.  0.
323  3.22  0.  0.
324  3.23  0.  0.
325  3.24  0.  0.
326  3.25  0.  0.
327  3.26  0.  0.
328  3.27  0.  0.
329  3.28  0.  0.
330  3.29  0.  0.
331  3.30  0.  0.
332  3.31  0.  0.
333  3.32  0.  0.
334  3.33  0.  0.
335  3.34  0.  0.
336  3.35  0.  0.
337  3.36  0.  0.
338  3.37  0.  0.
339  3.38  0.  0.
340  3.39  0.  0.
341  3.40  0.  0.
342  3.41  0.  0.
343  3.42  0.  0.
344  3.43  0.  0.
345  3.44  0.  0.
346  3.45  0.  0.
347  3.46  0.  0.
348  3.47  0.  0.
349  3.48  0.  0.
350  3.49  0.  0.
351  3.50  0.  0.
352  3.51  0.  0.
353  3.52  0.  0.
354  3.53  0.  0.
355  3.54  0.  0.
356  3.55  0.  0.
357  3.56  0.  0.
358  3.57  0.  0.
359  3.58  0.  0.
360  3.59  0.  0.
361  3.60  0.  0.
362  3.61  0.  0.
363  3.62  0.  0.
364  3.63  0.  0.
365  3.64  0.  0.
366  3.65  0.  0.
367  3.66  0.  0.
368  3.67  0.  0.
369  3.68  0.  0.
370  3.69  0.  0.
371  3.70  0.  0.
372  3.71  0.  0.
373  3.72  0.  0.
374  3.73  0.  0.
375  3.74  0.  0.
376  3.75  0.  0.
377  3.76  0.  0.
378  3.77  0.  0.
379  3.78  0.  0.
380  3.79  0.  0.
381  3.80  0.  0.
382  3.81  0.  0.
383  3.82  0.  0.
384  3.83  0.  0.
385  3.84  0.  0.
386  3.85  0.  0.
387  3.86  0.  0.
388  3.87  0.  0.
389  3.88  0.  0.
390  3.89  0.  0.
391  3.90  0.  0.
392  3.91  0.  0.
393  3.92  0.  0.
394  3.93  0.  0.
395  3.94  0.  0.
396  3.95  0.  0.
397  3.96  0.  0.
398  3.97  0.  0.
399  3.98  0.  0.
400  3.99  0.  0.
401  4.00  0.  0.
402  4.01  0.  0.
403  4.02  0.  0.
404  4.03  0.  0.
405  4.04  0.  0.
406  4.05  0.  0.
407  4.06  0.  0.
408  4.07  0.  0.
409  4.08  0.  0.
410  4.09  0.  0.
411  4.10  0.  0.
412  4.11  0.  0.
413  4.12  0.  0.
414  4.13  0.  0.
415  4.14  0.  0.
416  4.15  0.  0.
417  4.16  0.  0.
418  4.17  0.  0.
419  4.18  0.  0.
420  4.19  0.  0.
421  4.20  0.  0.
422  4.21  0.  0.
423  4.22  0.  0.
424  4.23  0.  0.
425  4.24  0.  0.
426  4.25  0.  0.
427  4.26  0.  0.
428  4.27  0.  0.
429  4.28  0.  0.
430  4.29  0.  0.
431  4.30  0.  0.
432  4.31  0.  0.
433  4.32  0.  0.
434  4.33  0.  0.
435  4.34  0.  0.
436  4.35  0.  0.
437  4.36  0.  0.
438  4.37  0.  0.
439  4.38  0.  0.
440  4.39  0.  0.
441  4.40  0.  0.
442  4.41  0.  0.
443  4.42  0.  0.
444  4.43  0.  0.
445  4.44  0.  0.
446  4.45  0.  0.
447  4.46  0.  0.
448  4.47  0.  0.
449  4.48  0.  0.
450  4.49  0.  0.
451  4.50  0.  0.
452  4.51  0.  0.
453  4.52  0.  0.
454  4.53  0.  0.
455  4.54  0.  0.
456  4.55  0.  0.
457  4.56  0.  0.
458  4.57  0.  0.
459  4.58  0.  0.
460  4.59  0.  0.
461  4.60  0.  0.
462  4.61  0.  0.
463  4.62  0.  0.
464  4.63  0.  0.
465  4.64  0.  0.
466  4.65  0.  0.
467  4.66  0.  0.
468  4.67  0.  0.
469  4.68  0.  0.
470  4.69  0.  0.
471  4.70  0.  0.
472  4.71  0.  0.
473  4.72  0.  0.
474  4.73  0.  0.
475  4.74  0.  0.
476  4.75  0.  0.
477  4.76  0.  0.
478  4.77  0.  0.
479  4.78  0.  0.
480  4.79  0.  0.
481  4.80  0.  0.
482  4.81  0.  0.
483  4.82  0.  0.
484  4.83  0.  0.
485  4.84  0.  0.
486  4.85  0.  0.
487  4.86  0.  0.
488  4.87  0.  0.
489  4.88  0.  0.
490  4.89  0.  0.
491  4.90  0.  0.
492  4.91  0.  0.
493  4.92  0.  0.
494  4.93  0.  0.
495  4.94  0.  0.
496  4.95  0.  0.
497  4.96  0.  0.
498  4.97  0.  0.
499  4.98  0.  0.
500  4.99  0.  0.
501  5.00  0.  0.
502  5.01  0.  0.
503  5.02  0.  0.
504  5.03  0.  0.
505  5.04  0.  0.
506  5.05  0.  0.
507  5.06  0.  0.
508  5.07  0.  0.
509  5.08  0.  0.
510  5.09  0.  0.
511  5.10  0.  0.
512  5.11  0.  0.
513  5.12  0.  0.
514  5.13  0.  0.
515  5.14  0.  0.
516  5.15  0.  0.
517  5.16  0.  0.
518  5.17  0.  0.
519  5.18  0.  0.
520  5.19  0.  0.
521  5.20  0.  0.
522  5.21  0.  0.
523  5.22  0.  0.
524  5.23  0.  0.
525  5.24  0.  0.
526  5.25  0.  0.
527  5.26  0.  0.
528  5.27  0.  0.
529  5.28  0.  0.
530  5.29  0.  0.
531  5.30  0.  0.
532  5.31  0.  0.
533  5.32  0.  0.
534  5.33  0.  0.
535  5.34  0.  0.
536  5.35  0.  0.
537  5.36  0.  0.
538  5.37  0.  0.
539  5.38  0.  0.
540  5.39  0.  0.
541  5.40  0.  0.
542  5.41  0.  0.
543  5.42  0.  0.
544  5.43  0.  0.
545  5.44  0.  0.
546  5.45  0.  0.
547  5.46  0.  0.
548  5.47  0.  0.
549  5.48  0.  0.
550  5.49  0.  0.
551  5.50  0.  0.
552  5.51  0.  0.
553  5.52  0.  0.
554  5.53  0.  0.
555  5.54  0.  0.
556  5.55  0.  0.
557  5.56  0.  0.
558  5.57  0.  0.
559  5.58  0.  0.
560  5.59  0.  0.
561  5.60  0.  0.
562  5.61  0.  0.
563  5.62  0.  0.
564  5.63  0.  0.
565  5.64  0.  0.
566  5.65  0.  0.
567  5.66  0.  0.
568  5.67  0.  0.
569  5.68  0.  0.
570  5.69  0.  0.
571  5.70  0.  0.
572  5.71  0.  0.
573  5.72  0.  0.
574  5.73  0.  0.
575  5.74  0.  0.
576  5.75  0.  0.
577  5.76  0.  0.
578  5.77  0.  0.
579  5.78  0.  0.
580  5.79  0.  0.
581  5.80  0.  0.
582  5.81  0.  0.
583  5.82  0.  0.
584  5.83  0.  0.
585  5.84  0.  0.
586  5.85  0.  0.
587  5.86  0.  0.
588  5.87  0.  0.
589  5.88  0.  0.
590  5.89  0.  0.
591  5.90  0.  0.
592  5.91  0.  0.
593  5.92  0.  0.
594  5.93  0.  0.
595  5.94  0.  0.
596  5.95  0.  0.
597  5.96  0.  0.
598  5.97  0.  0.
599  5.98  0.  0.
600  5.99  0.  0.
1                         6.3939325557529E+00  5.4168900583449E-01
1  0.0000000000000E+00  4.3539608030052E-10 -3.1741372585881E-09
2  1.0000000000000E-02  1.2244242256124E-03 -1.0436788783340E-03
3  2.0000000000000E-02  4.8930560034680E-03 -4.1629673985222E-03
4  3.0000000000000E-02  1.0991999428528E-02 -9.3227622603867E-03
5  4.0000000000000E-02  1.9498183730862E-02 -1.6465026366554E-02
6  5.0000000000000E-02  3.0379496064355E-02 -2.5509485339769E-02
7  6.0000000000000E-02  4.3594965780594E-02 -3.6354590544865E-02
8  7.0000000000000E-02  5.9094998575360E-02 -4.8878736679405E-02
9  8.0000000000000E-02  7.6821658459772E-02 -6.2941718822870E-02
10  9.0000000000000E-02  9.6708995091477E-02 -7.8386410834037E-02
11  1.0000000000000E-01  1.1868341360746E-01 -9.5040644195205E-02
12  1.1000000000000E-01  1.4266408373296E-01 -1.1271926385379E-01
13  1.2000000000000E-01  1.6856338460419E-01 -1.3122633533710E-01
14  1.3000000000000E-01  1.9628738143981E-01 -1.5035747544365E-01
15  1.4000000000000E-01  2.2573632993071E-01 -1.6990227716911E-01
16  1.5000000000000E-01  2.5680520399252E-01 -1.8964679822958E-01
17  1.6000000000000E-01  2.8938424234339E-01 -2.0937608161690E-01
18  1.7000000000000E-01  3.2335950923379E-01 -2.2887667607674E-01
19  1.8000000000000E-01  3.5861346456653E-01 -2.4793912424812E-01
20  1.9000000000000E-01  3.9502553860680E-01 -2.6636038645263E-01
21  2.0000000000000E-01  4.3247270649446E-01 -2.8394616877196E-01
22  2.1000000000000E-01  4.7083005783487E-01 -3.0051312510299E-01
23  2.2000000000000E-01  5.0997135676068E-01 -3.1589090432202E-01
24  2.3000000000000E-01  5.4976958802528E-01 -3.2992401551318E-01
25  2.4000000000000E-01  5.9009748490741E-01 -3.4247348640291E-01
26  2.5000000000000E-01  6.3082803497536E-01 -3.5341829267188E-01
27  2.6000000000000E-01  6.7183496007485E-01 -3.6265653866252E-01
28  2.7000000000000E-01  7.1299316726627E-01 -3.7010637313308E-01
29  2.8000000000000E-01  7.5417916783854E-01 -3.7570662709503E-01
30  2.9000000000000E-01  7.9527146196730E-01 -3.7941716436950E-01
31  3.0000000000000E-01  8.3615088705726E-01 -3.8121893927032E-01
32  3.1000000000000E-01  8.7670092830869E-01 -3.8111375971966E-01
33  3.2000000000000E-01  9.1680799057003E-01 -3.7912375807992E-01
34  3.3000000000000E-01  9.5636163107544E-01 -3.7529057599242E-01
35  3.4000000000000E-01  9.9525475321233E-01 -3.6967427349786E-01
36  3.5000000000000E-01  1.0333837620105E+00 -3.6235197662205E-01
37  3.6000000000000E-01  1.0706486825858E+00 -3.5341628139071E-01
38  3.7000000000000E-01  1.1069532432990E+00 -3.4297343583509E-01
39  3.8000000000000E-01  1.1422049258944E+00 -3.3114132491481E-01
40  3.9000000000000E-01  1.1763149853603E+00 -3.1804728636357E-01
41  4.0000000000000E-01  1.2091984426911E+00 -3.0382578821148E-01
42  4.1000000000000E-01  1.2407740541249E+00 -2.8861600110711E-01
43  4.2000000000000E-01  1.2709642607722E+00 -2.7255930051431E-01
44  4.3000000000000E-01  1.2996951228338E+00 -2.5579673535515E-01
45  4.4000000000000E-01  1.3268962428268E+00 -2.3846650068085E-01
46  4.5000000000000E-01  1.3525006823826E+00 -2.2070145245135E-01
47  4.6000000000000E-01  1.3764448772590E+00 -2.0262670247216E-01
48  4.7000000000000E-01  1.3986685552017E+00 -1.8435733096322E-01
49  4.8000000000000E-01  1.4191146612080E+00 -1.6599625311242E-01
50  4.9000000000000E-01  1.4377292945819E+00 -1.4763227430098E-01
51  5.0000000000000E-01  1.4544616619198E+00 -1.2933836648862E-01
52  5.1000000000000E-01  1.4692640498443E+00 -1.1117019553306E-01
53  5.2000000000000E-01  1.4820918208951E+00 -9.3164926017239E-02
54  5.3000000000000E-01  1.4929034355147E+00 -7.5340326504879E-02
55  5.4000000000000E-01  1.5016605025181E+00 -5.7694194081283E-02
56  5.5000000000000E-01  1.5083278598329E+00 -4.0204112613149E-02
57  5.6000000000000E-01  1.5128736866392E+00 -2.2827554434569E-02
58  5.7000000000000E-01  1.5152696473347E+00 -5.5023301991637E-03
59  5.8000000000000E-01  1.5154910670193E+00  1.1852613501489E-02
60  5.9000000000000E-01  1.5135171374362E+00  2.9336054391841E-02
61  6.0000000000000E-01  1.5093311515409E+00  4.7063023539871E-02
62  6.1000000000000E-01  1.5029207641086E+00  6.5163019266021E-02
63  6.2000000000000E-01  1.4942782750439E+00  8.3777927112004E-02
64  6.3000000000000E-01  1.4834009313440E+00  1.0305967190234E-01
65  6.4000000000000E-01  1.4702912429922E+00  1.2316763249097E-01
66  6.5000000000000E-01  1.4549573074491E+00  1.4426585397120E-01
67  6.6000000000000E-01  1.4374131368607E+00  1.6652009586949E-01
68  6.7000000000000E-01  1.4176789816470E+00  1.9009475807046E-01
69  6.8000000000000E-01  1.3957816437620E+00  2.1514972887452E-01
70  6.9000000000000E-01  1.3717547726581E+00  2.4183720161168E-01
71  7.0000000000000E-01  1.3456391368348E+00  2.7029850758450E-01
72  7.1000000000000E-01  1.3174828638221E+00  3.0066101374984E-01
73  7.2000000000000E-01  1.2873416415429E+00  3.3303513345060E-01
74  7.3000000000000E-01  1.2552788742258E+00  3.6751149765850E-01
75  7.4000000000000E-01  1.2213657863867E+00  4.0415833258728E-01
76  7.5000000000000E-01  1.1856814688848E+00  4.4301908718960E-01
77  7.6000000000000E-01  1.1483128616642E+00  4.8411035098637E-01
78  7.7000000000000E-01  1.1093546685154E+00  5.2742009892582E-01
79  7.8000000000000E-01  1.0689092000340E+00  5.7290629558160E-01
80  7.9000000000000E-01  1.0270861418899E+00  6.2049588603086E-01
81  8.0000000000000E-01  9.8400224654665E-01  6.7008419527875E-01
82  8.1000000000000E-01  9.3978094767341E-01  7.2153475219041E-01
83  8.2000000000000E-01  8.9455189764953E-01  7.7467954765197E-01
84  8.3000000000000E-01  8.4845042975628E-01  8.2931973019964E-01
85  8.4000000000000E-01  8.0161694786819E-01  8.8522673573892E-01
86  8.5000000000000E-01  7.5419624766832E-01  9.4214384133484E-01
87  8.6000000000000E-01  7.0633677460275E-01  9.9978812649453E-01
88  8.7000000000000E-01  6.5818982493338E-01  1.0578528190093E+00
89  8.8000000000000E-01  6.0990869732515E-01  1.1160099963773E+00
90  8.9000000000000E-01  5.6164780339066E-01  1.1739136082062E+00
91  9.0000000000000E-01  5.1356174649165E-01  1.2312027799043E+00
92  9.1000000000000E-01  4.6580437884260E-01  1.2875053534976E+00
93  9.2000000000000E-01  4.1852784755906E-01  1.3424416176642E+00
94  9.3000000000000E-01  3.7188164072487E-01  1.3956281761182E+00
95  9.4000000000000E-01  3.2601164480554E-01  1.4466819013839E+00
96  9.5000000000000E-01  2.8105922479710E-01  1.4952239198215E+00
97  9.6000000000000E-01  2.3716033836336E-01  1.5408835735366E+00
98  9.7000000000000E-01  1.9444469487450E-01  1.5833023055504E+00
99  9.8000000000000E-01  1.5303496971470E-01  1.6221374163250E+00
100  9.9000000000000E-01  1.1304608347864E-01  1.6570656424164E+00
101  1.0000000000000E+00  7.4584554731861E-02  1.6877865116277E+00
102  1.0100000000000E+00  3.7747933880255E-02  1.7140254335090E+00
103  1.0200000000000E+00  2.6243243899276E-03  1.7355364893213E+00
104  1.0300000000000E+00 -3.0708003857922E-02  1.7521048915640E+00
105  1.0400000000000E+00 -6.2180905880483E-02  1.7635490897439E+00
106  1.0500000000000E+00 -9.1736556074818E-02  1.7697225061204E+00
107  1.0600000000000E+00 -1.1932754613890E-01  1.7705148925568E+00
108  1.0700000000000E+00 -1.4491688851843E-01  1.7658533071689E+00
109  1.0800000000000E+00 -1.6847792929357E-01  1.7557027170580E+00
110  1.0900000000000E+00 -1.8999417621216E-01  1.7400662408178E+00
111  1.1000000000000E+00 -2.0945904930290E-01  1.7189850515801E+00
112  1.1100000000000E+00 -2.2687556311313E-01  1.6925379678671E+00
113  1.1200000000000E+00 -2.4225595106999E-01  1.6608407652818E+00
114  1.1300000000000E+00 -2.5562124371570E-01  1.6240452468765E+00
115  1.1400000000000E+00 -2.6700081356862E-01  1.5823381136771E+00
116  1.1500000000000E+00 -2.7643190006715E-01  1.5359396791141E+00
117  1.1600000000000E+00 -2.8395912841419E-01  1.4851024718083E+00
118  1.1700000000000E+00 -2.8963403610911E-01  1.4301097700643E+00
119  1.1800000000000E+00 -2.9351462048570E-01  1.3712741083618E+00
120  1.1900000000000E+00 -2.9566491962136E-01  1.3089357908800E+00
121  1.2000000000000E+00 -2.9615463749558E-01  1.2434614394496E+00
122  1.2100000000000E+00 -2.9505882222367E-01  1.1752425931759E+00
123  1.2200000000000E+00 -2.9245760349907E-01  1.1046943639782E+00
124  1.2300000000000E+00 -2.8843599205015E-01  1.0322541364993E+00
125  1.2400000000000E+00 -2.8308373985853E-01  9.5838028182888E-01
126  1.2500000000000E+00 -2.7649525508355E-01  8.8355083222226E-01
127  1.2600000000000E+00 -2.6876956007651E-01  8.0826203842319E-01
128  1.2700000000000E+00 -2.6001027441806E-01  7.3302670175806E-01
129  1.2800000000000E+00 -2.5032559763652E-01  6.5837214014929E-01
130  1.2900000000000E+00 -2.3982825808018E-01  5.8483761024634E-01
131  1.3000000000000E+00 -2.2863538521967E-01  5.1297096654647E-01
132  1.3100000000000E+00 -2.1686825250539E-01  4.4332429294774E-01
133  1.3200000000000E+00 -2.0465182673854E-01  3.7644819238991E-01
134  1.3300000000000E+00 -1.9211404755721E-01  3.1288436532654E-01