Tm    ONCVPSP-4.0.1  r_core=   2.00859   1.60017   1.90331   1.40285
69.0000     23.0000      241206    zatom,zion,pspd
8      11   3     4   600     0    pspcod,pspxc,lmax,lloc,mmax,r2well
5.99000000  4.00000000  0.00000000    rchrg fchrg qchrg
2     2     2     2     0    nproj
1     1           extension_switch
0                         6.9258642871392E+00  9.7159367150581E-01
1  0.0000000000000E+00  7.4222239465627E-11 -2.0968577915670E-10
2  1.0000000000000E-02  4.4686570664134E-02 -2.8725833420812E-03
3  2.0000000000000E-02  8.9340410646279E-02 -5.7718975268899E-03
4  3.0000000000000E-02  1.3392864715669E-01 -8.7241660883250E-03
5  4.0000000000000E-02  1.7841812516671E-01 -1.1754603409982E-02
6  5.0000000000000E-02  2.2277527121171E-01 -1.4886923764757E-02
7  6.0000000000000E-02  2.6696596304811E-01 -1.8142866542505E-02
8  7.0000000000000E-02  3.1095540702795E-01 -2.1541742813758E-02
9  8.0000000000000E-02  3.5470802498043E-01 -2.5100008167828E-02
10  9.0000000000000E-02  3.9818735229817E-01 -2.8830866504995E-02
11  1.0000000000000E-01  4.4135594881776E-01 -3.2743909157412E-02
12  1.1000000000000E-01  4.8417532396037E-01 -3.6844793364331E-02
13  1.2000000000000E-01  5.2660587745969E-01 -4.1134963737827E-02
14  1.3000000000000E-01  5.6860685685301E-01 -4.5611419928424E-02
15  1.4000000000000E-01  6.1013633274682E-01 -5.0266533240208E-02
16  1.5000000000000E-01  6.5115119269462E-01 -5.5087914456271E-02
17  1.6000000000000E-01  6.9160715434020E-01 -6.0058334621829E-02
18  1.7000000000000E-01  7.3145879828943E-01 -6.5155699999510E-02
19  1.8000000000000E-01  7.7065962097602E-01 -7.0353081863422E-02
20  1.9000000000000E-01  8.0916210758640E-01 -7.5618801241306E-02
21  2.0000000000000E-01  8.4691782490531E-01 -8.0916568152348E-02
22  2.1000000000000E-01  8.8387753374060E-01 -8.6205674327624E-02
23  2.2000000000000E-01  9.1999132038327E-01 -9.1441237846069E-02
24  2.3000000000000E-01  9.5520874636052E-01 -9.6574497576368E-02
25  2.4000000000000E-01  9.8947901554568E-01 -1.0155315479036E-01
26  2.5000000000000E-01  1.0227511575026E+00 -1.0632175881076E-01
27  2.6000000000000E-01  1.0549742257641E+00 -1.1082213308102E-01
28  2.7000000000000E-01  1.0860975095774E+00 -1.1499383760268E-01
29  2.8000000000000E-01  1.1160707574937E+00 -1.1877466327994E-01
30  2.9000000000000E-01  1.1448444110375E+00 -1.2210115334762E-01
31  3.0000000000000E-01  1.1723698465667E+00 -1.2490914673978E-01
32  3.1000000000000E-01  1.1985996233218E+00 -1.2713433798762E-01
33  3.2000000000000E-01  1.2234877355748E+00 -1.2871284801790E-01
34  3.3000000000000E-01  1.2469898667085E+00 -1.2958180006217E-01
35  3.4000000000000E-01  1.2690636430120E+00 -1.2967989478244E-01
36  3.5000000000000E-01  1.2896688849354E+00 -1.2894797867432E-01
37  3.6000000000000E-01  1.3087678535422E+00 -1.2732959982430E-01
38  3.7000000000000E-01  1.3263254899014E+00 -1.2477154517455E-01
39  3.8000000000000E-01  1.3423096451947E+00 -1.2122435358635E-01
40  3.9000000000000E-01  1.3566912993632E+00 -1.1664279919223E-01
41  4.0000000000000E-01  1.3694447661952E+00 -1.1098633978449E-01
42  4.1000000000000E-01  1.3805478828435E+00 -1.0421952530403E-01
43  4.2000000000000E-01  1.3899821818826E+00 -9.6312361864173E-02
44  4.3000000000000E-01  1.3977330441425E+00 -8.7240627168231E-02
45  4.4000000000000E-01  1.4037898307106E+00 -7.6986133651614E-02
46  4.5000000000000E-01  1.4081459926622E+00 -6.5536936197136E-02
47  4.6000000000000E-01  1.4107991572614E+00 -5.2887481829200E-02
48  4.7000000000000E-01  1.4117511895773E+00 -3.9038699385540E-02
49  4.8000000000000E-01  1.4110082286651E+00 -2.3998027787204E-02
50  4.9000000000000E-01  1.4085806976908E+00 -7.7793821732155E-03
51  5.0000000000000E-01  1.4044832876012E+00  9.5969421705654E-03
52  5.1000000000000E-01  1.3987349141825E+00  2.8104427485502E-02
53  5.2000000000000E-01  1.3913586485897E+00  4.7710551536329E-02
54  5.3000000000000E-01  1.3823816216729E+00  6.8377063975015E-02
55  5.4000000000000E-01  1.3718349026689E+00  9.0060318453603E-02
56  5.5000000000000E-01  1.3597533530676E+00  1.1271165722138E-01
57  5.6000000000000E-01  1.3461754566979E+00  1.3627784431986E-01
58  5.7000000000000E-01  1.3311431273057E+00  1.6070154289905E-01
59  5.8000000000000E-01  1.3147014951165E+00  1.8592183162729E-01
60  5.9000000000000E-01  1.2968986740793E+00  2.1187475465988E-01
61  6.0000000000000E-01  1.2777855116860E+00  2.3849389917695E-01
62  6.1000000000000E-01  1.2574153234329E+00  2.6571099410236E-01
63  6.2000000000000E-01  1.2358436141534E+00  2.9345652327980E-01
64  6.3000000000000E-01  1.2131277885901E+00  3.2166034611310E-01
65  6.4000000000000E-01  1.1893268536910E+00  3.5025231848056E-01
66  6.5000000000000E-01  1.1645011152142E+00  3.7916290660990E-01
67  6.6000000000000E-01  1.1387118712944E+00  4.0832378655583E-01
68  6.7000000000000E-01  1.1120211056736E+00  4.3766842195596E-01
69  6.8000000000000E-01  1.0844911833204E+00  4.6713261285680E-01
70  6.9000000000000E-01  1.0561845511584E+00  4.9665500859786E-01
71  7.0000000000000E-01  1.0271634465941E+00  5.2617757801974E-01
72  7.1000000000000E-01  9.9748961647769E-01  5.5564603061962E-01
73  7.2000000000000E-01  9.6722404904938E-01  5.8501018271288E-01
74  7.3000000000000E-01  9.3642672131447E-01  6.1422426317002E-01
75  7.4000000000000E-01  9.0515636415889E-01  6.4324715387950E-01
76  7.5000000000000E-01  8.7347024735967E-01  6.7204256073600E-01
77  7.6000000000000E-01  8.4142398646610E-01  7.0057911166405E-01
78  7.7000000000000E-01  8.0907137332656E-01  7.2883037895381E-01
79  7.8000000000000E-01  7.7646423181557E-01  7.5677482400224E-01
80  7.9000000000000E-01  7.4365230007758E-01  7.8439566341190E-01
81  8.0000000000000E-01  7.1068314034898E-01  8.1168065629509E-01
82  8.1000000000000E-01  6.7760207715146E-01  8.3862181355286E-01
83  8.2000000000000E-01  6.4445216436866E-01  8.6521503084072E-01
84  8.3000000000000E-01  6.1127418142757E-01  8.9145964788632E-01
85  8.4000000000000E-01  5.7810665850769E-01  9.1735793777972E-01
86  8.5000000000000E-01  5.4498593039714E-01  9.4291453080765E-01
87  8.6000000000000E-01  5.1194621830837E-01  9.6813577833803E-01
88  8.7000000000000E-01  4.7901973865849E-01  9.9302906317408E-01
89  8.8000000000000E-01  4.4623683751325E-01  1.0176020636781E+00
90  8.9000000000000E-01  4.1362614909169E-01  1.0418619798066E+00
91  9.0000000000000E-01  3.8121477643212E-01  1.0658147299936E+00
92  9.1000000000000E-01  3.4902849203200E-01  1.0894641285546E+00
93  9.2000000000000E-01  3.1709195599649E-01  1.1128110539654E+00
94  9.3000000000000E-01  2.8542894896450E-01  1.1358526189700E+00
95  9.4000000000000E-01  2.5406261682966E-01  1.1585813540083E+00
96  9.5000000000000E-01  2.2301572403784E-01  1.1809844158976E+00
97  9.6000000000000E-01  1.9231091202535E-01  1.2030428340631E+00
98  9.7000000000000E-01  1.6197095916407E-01  1.2247308068736E+00
99  9.8000000000000E-01  1.3201903840343E-01  1.2460150608045E+00
100  9.9000000000000E-01  1.0247896864657E-01  1.2668542852025E+00
101  1.0000000000000E+00  7.3375455771122E-02  1.2871986553717E+00
102  1.0100000000000E+00  4.4734319105441E-02  1.3069894565249E+00
103  1.0200000000000E+00  1.6582699102329E-02  1.3261588208402E+00
104  1.0300000000000E+00 -1.1050758084775E-02  1.3446295894324E+00
105  1.0400000000000E+00 -3.8135743419115E-02  1.3623153104716E+00
106  1.0500000000000E+00 -6.4640159450287E-02  1.3791203839617E+00
107  1.0600000000000E+00 -9.0530030615527E-02  1.3949403628064E+00
108  1.0700000000000E+00 -1.1576945342680E-01  1.4096624187463E+00
109  1.0800000000000E+00 -1.4032059042149E-01  1.4231659805143E+00
110  1.0900000000000E+00 -1.6414371152343E-01  1.4353235501348E+00
111  1.1000000000000E+00 -1.8719728616801E-01  1.4460017016569E+00
112  1.1100000000000E+00 -2.0943812918505E-01  1.4550622647477E+00
113  1.1200000000000E+00 -2.3082160299840E-01  1.4623636934658E+00
114  1.1300000000000E+00 -2.5130187818400E-01  1.4677626181574E+00
115  1.1400000000000E+00 -2.7083225382077E-01  1.4711155757525E+00
116  1.1500000000000E+00 -2.8936553835962E-01  1.4722809107494E+00
117  1.1600000000000E+00 -3.0685449091880E-01  1.4711208358512E+00
118  1.1700000000000E+00 -3.2325232197197E-01  1.4675036375050E+00
119  1.1800000000000E+00 -3.3851325132342E-01  1.4613060074776E+00
120  1.1900000000000E+00 -3.5259312004483E-01  1.4524154770403E+00
121  1.2000000000000E+00 -3.6545005166633E-01  1.4407329252712E+00
122  1.2100000000000E+00 -3.7704515636600E-01  1.4261751274274E+00
123  1.2200000000000E+00 -3.8734327015006E-01  1.4086773031573E+00
124  1.2300000000000E+00 -3.9631371907591E-01  1.3881956175891E+00
125  1.2400000000000E+00 -4.0393109639184E-01  1.3647095808723E+00
126  1.2500000000000E+00 -4.1017603805354E-01  1.3382242835936E+00
127  1.2600000000000E+00 -4.1503597941737E-01  1.3087723965955E+00
128  1.2700000000000E+00 -4.1850587294740E-01  1.2764158539274E+00
129  1.2800000000000E+00 -4.2058884353379E-01  1.2412471270381E+00
130  1.2900000000000E+00 -4.2129675446472E-01  1.2033899867587E+00
131  1.3000000000000E+00 -4.2065065317625E-01  1.1629996369791E+00
132  1.3100000000000E+00 -4.1868106164640E-01  1.1202620902633E+00
133  1.3200000000000E+00 -4.1542807167054E-01  1.0753926408874E+00
134  1.3300000000000E+00 -4.1094120017924E-01  1.0286332746767E+00
135  1.3400000000000E+00 -4.0527895429383E-01  9.8024883775735E-01
136  1.3500000000000E+00 -3.9850804987700E-01  9.3052176765000E-01
137  1.3600000000000E+00 -3.9070222093154E-01  8.7974517005483E-01
138  1.3700000000000E+00 -3.8194055026041E-01  8.2821400297796E-01
139  1.3800000000000E+00 -3.7230524380496E-01  7.7621410353751E-01
140  1.3900000000000E+00 -3.6187876164767E-01  7.2400876116440E-01
141  1.4000000000000E+00 -3.5074026243367E-01  6.7182279712451E-01
142  1.4100000000000E+00 -3.3896118645679E-01  6.1982343003750E-01
143  1.4200000000000E+00 -3.2660593151549E-01  5.6813074924516E-01
144  1.4300000000000E+00 -3.1373859892894E-01  5.1685950682878E-01
145  1.4400000000000E+00 -3.0042460808524E-01  4.6612924322868E-01
146  1.4500000000000E+00 -2.8673034678375E-01  4.1606310390851E-01
147  1.4600000000000E+00 -2.7272287707247E-01  3.6678701513742E-01
148  1.4700000000000E+00 -2.5846961591375E-01  3.1842875306580E-01
149  1.4800000000000E+00 -2.4403800310052E-01  2.7111697061550E-01
150  1.4900000000000E+00 -2.2949515901126E-01  2.2498018991458E-01
151  1.5000000000000E+00 -2.1490753508386E-01  1.8014576927944E-01
152  1.5100000000000E+00 -2.0034055998110E-01  1.3673885399015E-01
153  1.5200000000000E+00 -1.8585828450305E-01  9.4881320364375E-02
154  1.5300000000000E+00 -1.7152302852650E-01  5.4690723597253E-02
155  1.5400000000000E+00 -1.5739503292202E-01  1.6279258243030E-02
156  1.5500000000000E+00 -1.4353211979203E-01 -2.0247257939012E-02
157  1.5600000000000E+00 -1.2998936437429E-01 -5.4790365987579E-02
158  1.5700000000000E+00 -1.1681878127296E-01 -8.7259905923668E-02
159  1.5800000000000E+00 -1.0406902845728E-01 -1.1757490363388E-01
160  1.5900000000000E+00 -9.1785131709954E-02 -1.4566439634003E-01
161  1.6000000000000E+00 -8.0008232346100E-02 -1.7146818765173E-01
162  1.6100000000000E+00 -6.8775360766672E-02 -1.9493752412001E-01
163  1.6200000000000E+00 -5.8119238199738E-02 -2.1603568586689E-01
164  1.6300000000000E+00 -4.8068108784208E-02 -2.3473848444527E-01
165  1.6400000000000E+00 -3.8645603870740E-02 -2.5103466199008E-01
166  1.6500000000000E+00 -2.9870640134469E-02 -2.6492618660034E-01
167  1.6600000000000E+00 -2.1757352834756E-02 -2.7642843966538E-01
168  1.6700000000000E+00 -1.4315065204734E-02 -2.8557029200023E-01
169  1.6800000000000E+00 -7.5482946670202E-03 -2.9239406651308E-01
170  1.6900000000000E+00 -1.4567962105667E-03 -2.9695538629161E-01
171  1.7000000000000E+00  3.9643570439654E-03 -2.9932290792868E-01
172  1.7100000000000E+00  8.7246564287774E-03 -2.9957794108029E-01
173  1.7200000000000E+00  1.2838004139578E-02 -2.9781395630345E-01
174  1.7300000000000E+00  1.6322524466286E-02 -2.9413598420190E-01
175  1.7400000000000E+00  1.9200341192745E-02 -2.8865991004438E-01
176  1.7500000000000E+00  2.1497322829572E-02 -2.8151166900350E-01
177  1.7600000000000E+00  2.3242797634647E-02 -2.7282634806191E-01
178  1.7700000000000E+00  2.4469240692713E-02 -2.6274720165040E-01
179  1.7800000000000E+00  2.5211935574889E-02 -2.5142458884711E-01
180  1.7900000000000E+00  2.5508613375363E-02 -2.3901484085668E-01
181  1.8000000000000E+00  2.5399072082828E-02 -2.2567906794822E-01
182  1.8100000000000E+00  2.4924779647019E-02 -2.1158191643275E-01
183  1.8200000000000E+00  2.4128463781281E-02 -1.9689028493860E-01
184  1.8300000000000E+00  2.3053692433727E-02 -1.8177201253710E-01
185  1.8400000000000E+00  2.1744448310400E-02 -1.6639454912087E-01
186  1.8500000000000E+00  2.0244701077865E-02 -1.5092361931599E-01
187  1.8600000000000E+00  1.8597981190624E-02 -1.3552189239281E-01
188  1.8700000000000E+00  1.6846959147513E-02 -1.2034766988664E-01
189  1.8800000000000E+00  1.5033032762201E-02 -1.0555359943065E-01
190  1.8900000000000E+00  1.3195924667432E-02 -9.1285422315230E-02
191  1.9000000000000E+00  1.1373323011781E-02 -7.7680846198847E-02
192  1.9100000000000E+00  9.6003178310086E-03 -6.4867865271995E-02
193  1.9200000000000E+00  7.9077733549647E-03 -5.2960034621711E-02
194  1.9300000000000E+00  6.3245677684256E-03 -4.2062639258382E-02
195  1.9400000000000E+00  4.8778809599015E-03 -3.2273500691353E-02
196  1.9500000000000E+00  3.5908834331333E-03 -2.3676487079189E-02
197  1.9600000000000E+00  2.4828129165415E-03 -1.6341634468593E-02
198  1.9700000000000E+00  1.5687520561939E-03 -1.0324464230752E-02
199  1.9800000000000E+00  8.5981259074858E-04 -5.6677353384081E-03
200  1.9900000000000E+00  3.5947108403822E-04 -2.3771727859958E-03
201  2.0000000000000E+00  8.0766119502115E-05 -5.3686296795779E-04
202  2.0100000000000E+00 -4.0401640419558E-06  2.6963940904119E-05
203  2.0200000000000E+00 -7.9196712291074E-07  5.3020264381400E-06
204  2.03  0. -0.
205  2.04 -0.  0.
206  2.05 -0. -0.
207  2.06  0.  0.
208  2.07  0.  0.
209  2.08  0.  0.
210  2.09  0.  0.
211  2.10  0.  0.
212  2.11  0.  0.
213  2.12  0.  0.
214  2.13  0.  0.
215  2.14  0.  0.
216  2.15  0.  0.
217  2.16  0.  0.
218  2.17  0.  0.
219  2.18  0.  0.
220  2.19  0.  0.
221  2.20  0.  0.
222  2.21  0.  0.
223  2.22  0.  0.
224  2.23  0.  0.
225  2.24  0.  0.
226  2.25  0.  0.
227  2.26  0.  0.
228  2.27  0.  0.
229  2.28  0.  0.
230  2.29  0.  0.
231  2.30  0.  0.
232  2.31  0.  0.
233  2.32  0.  0.
234  2.33  0.  0.
235  2.34  0.  0.
236  2.35  0.  0.
237  2.36  0.  0.
238  2.37  0.  0.
239  2.38  0.  0.
240  2.39  0.  0.
241  2.40  0.  0.
242  2.41  0.  0.
243  2.42  0.  0.
244  2.43  0.  0.
245  2.44  0.  0.
246  2.45  0.  0.
247  2.46  0.  0.
248  2.47  0.  0.
249  2.48  0.  0.
250  2.49  0.  0.
251  2.50  0.  0.
252  2.51  0.  0.
253  2.52  0.  0.
254  2.53  0.  0.
255  2.54  0.  0.
256  2.55  0.  0.
257  2.56  0.  0.
258  2.57  0.  0.
259  2.58  0.  0.
260  2.59  0.  0.
261  2.60  0.  0.
262  2.61  0.  0.
263  2.62  0.  0.
264  2.63  0.  0.
265  2.64  0.  0.
266  2.65  0.  0.
267  2.66  0.  0.
268  2.67  0.  0.
269  2.68  0.  0.
270  2.69  0.  0.
271  2.70  0.  0.
272  2.71  0.  0.
273  2.72  0.  0.
274  2.73  0.  0.
275  2.74  0.  0.
276  2.75  0.  0.
277  2.76  0.  0.
278  2.77  0.  0.
279  2.78  0.  0.
280  2.79  0.  0.
281  2.80  0.  0.
282  2.81  0.  0.
283  2.82  0.  0.
284  2.83  0.  0.
285  2.84  0.  0.
286  2.85  0.  0.
287  2.86  0.  0.
288  2.87  0.  0.
289  2.88  0.  0.
290  2.89  0.  0.
291  2.90  0.  0.
292  2.91  0.  0.
293  2.92  0.  0.
294  2.93  0.  0.
295  2.94  0.  0.
296  2.95  0.  0.
297  2.96  0.  0.
298  2.97  0.  0.
299  2.98  0.  0.
300  2.99  0.  0.
301  3.00  0.  0.
302  3.01  0.  0.
303  3.02  0.  0.
304  3.03  0.  0.
305  3.04  0.  0.
306  3.05  0.  0.
307  3.06  0.  0.
308  3.07  0.  0.
309  3.08  0.  0.
310  3.09  0.  0.
311  3.10  0.  0.
312  3.11  0.  0.
313  3.12  0.  0.
314  3.13  0.  0.
315  3.14  0.  0.
316  3.15  0.  0.
317  3.16  0.  0.
318  3.17  0.  0.
319  3.18  0.  0.
320  3.19  0.  0.
321  3.20  0.  0.
322  3.21  0.  0.
323  3.22  0.  0.
324  3.23  0.  0.
325  3.24  0.  0.
326  3.25  0.  0.
327  3.26  0.  0.
328  3.27  0.  0.
329  3.28  0.  0.
330  3.29  0.  0.
331  3.30  0.  0.
332  3.31  0.  0.
333  3.32  0.  0.
334  3.33  0.  0.
335  3.34  0.  0.
336  3.35  0.  0.
337  3.36  0.  0.
338  3.37  0.  0.
339  3.38  0.  0.
340  3.39  0.  0.
341  3.40  0.  0.
342  3.41  0.  0.
343  3.42  0.  0.
344  3.43  0.  0.
345  3.44  0.  0.
346  3.45  0.  0.
347  3.46  0.  0.
348  3.47  0.  0.
349  3.48  0.  0.
350  3.49  0.  0.
351  3.50  0.  0.
352  3.51  0.  0.
353  3.52  0.  0.
354  3.53  0.  0.
355  3.54  0.  0.
356  3.55  0.  0.
357  3.56  0.  0.
358  3.57  0.  0.
359  3.58  0.  0.
360  3.59  0.  0.
361  3.60  0.  0.
362  3.61  0.  0.
363  3.62  0.  0.
364  3.63  0.  0.
365  3.64  0.  0.
366  3.65  0.  0.
367  3.66  0.  0.
368  3.67  0.  0.
369  3.68  0.  0.
370  3.69  0.  0.
371  3.70  0.  0.
372  3.71  0.  0.
373  3.72  0.  0.
374  3.73  0.  0.
375  3.74  0.  0.
376  3.75  0.  0.
377  3.76  0.  0.
378  3.77  0.  0.
379  3.78  0.  0.
380  3.79  0.  0.
381  3.80  0.  0.
382  3.81  0.  0.
383  3.82  0.  0.
384  3.83  0.  0.
385  3.84  0.  0.
386  3.85  0.  0.
387  3.86  0.  0.
388  3.87  0.  0.
389  3.88  0.  0.
390  3.89  0.  0.
391  3.90  0.  0.
392  3.91  0.  0.
393  3.92  0.  0.
394  3.93  0.  0.
395  3.94  0.  0.
396  3.95  0.  0.
397  3.96  0.  0.
398  3.97  0.  0.
399  3.98  0.  0.
400  3.99  0.  0.
401  4.00  0.  0.
402  4.01  0.  0.
403  4.02  0.  0.
404  4.03  0.  0.
405  4.04  0.  0.
406  4.05  0.  0.
407  4.06  0.  0.
408  4.07  0.  0.
409  4.08  0.  0.
410  4.09  0.  0.
411  4.10  0.  0.
412  4.11  0.  0.
413  4.12  0.  0.
414  4.13  0.  0.
415  4.14  0.  0.
416  4.15  0.  0.
417  4.16  0.  0.
418  4.17  0.  0.
419  4.18  0.  0.
420  4.19  0.  0.
421  4.20  0.  0.
422  4.21  0.  0.
423  4.22  0.  0.
424  4.23  0.  0.
425  4.24  0.  0.
426  4.25  0.  0.
427  4.26  0.  0.
428  4.27  0.  0.
429  4.28  0.  0.
430  4.29  0.  0.
431  4.30  0.  0.
432  4.31  0.  0.
433  4.32  0.  0.
434  4.33  0.  0.
435  4.34  0.  0.
436  4.35  0.  0.
437  4.36  0.  0.
438  4.37  0.  0.
439  4.38  0.  0.
440  4.39  0.  0.
441  4.40  0.  0.
442  4.41  0.  0.
443  4.42  0.  0.
444  4.43  0.  0.
445  4.44  0.  0.
446  4.45  0.  0.
447  4.46  0.  0.
448  4.47  0.  0.
449  4.48  0.  0.
450  4.49  0.  0.
451  4.50  0.  0.
452  4.51  0.  0.
453  4.52  0.  0.
454  4.53  0.  0.
455  4.54  0.  0.
456  4.55  0.  0.
457  4.56  0.  0.
458  4.57  0.  0.
459  4.58  0.  0.
460  4.59  0.  0.
461  4.60  0.  0.
462  4.61  0.  0.
463  4.62  0.  0.
464  4.63  0.  0.
465  4.64  0.  0.
466  4.65  0.  0.
467  4.66  0.  0.
468  4.67  0.  0.
469  4.68  0.  0.
470  4.69  0.  0.
471  4.70  0.  0.
472  4.71  0.  0.
473  4.72  0.  0.
474  4.73  0.  0.
475  4.74  0.  0.
476  4.75  0.  0.
477  4.76  0.  0.
478  4.77  0.  0.
479  4.78  0.  0.
480  4.79  0.  0.
481  4.80  0.  0.
482  4.81  0.  0.
483  4.82  0.  0.
484  4.83  0.  0.
485  4.84  0.  0.
486  4.85  0.  0.
487  4.86  0.  0.
488  4.87  0.  0.
489  4.88  0.  0.
490  4.89  0.  0.
491  4.90  0.  0.
492  4.91  0.  0.
493  4.92  0.  0.
494  4.93  0.  0.
495  4.94  0.  0.
496  4.95  0.  0.
497  4.96  0.  0.
498  4.97  0.  0.
499  4.98  0.  0.
500  4.99  0.  0.
501  5.00  0.  0.
502  5.01  0.  0.
503  5.02  0.  0.
504  5.03  0.  0.
505  5.04  0.  0.
506  5.05  0.  0.
507  5.06  0.  0.
508  5.07  0.  0.
509  5.08  0.  0.
510  5.09  0.  0.
511  5.10  0.  0.
512  5.11  0.  0.
513  5.12  0.  0.
514  5.13  0.  0.
515  5.14  0.  0.
516  5.15  0.  0.
517  5.16  0.  0.
518  5.17  0.  0.
519  5.18  0.  0.
520  5.19  0.  0.
521  5.20  0.  0.
522  5.21  0.  0.
523  5.22  0.  0.
524  5.23  0.  0.
525  5.24  0.  0.
526  5.25  0.  0.
527  5.26  0.  0.
528  5.27  0.  0.
529  5.28  0.  0.
530  5.29  0.  0.
531  5.30  0.  0.
532  5.31  0.  0.
533  5.32  0.  0.
534  5.33  0.  0.
535  5.34  0.  0.
536  5.35  0.  0.
537  5.36  0.  0.
538  5.37  0.  0.
539  5.38  0.  0.
540  5.39  0.  0.
541  5.40  0.  0.
542  5.41  0.  0.
543  5.42  0.  0.
544  5.43  0.  0.
545  5.44  0.  0.
546  5.45  0.  0.
547  5.46  0.  0.
548  5.47  0.  0.
549  5.48  0.  0.
550  5.49  0.  0.
551  5.50  0.  0.
552  5.51  0.  0.
553  5.52  0.  0.
554  5.53  0.  0.
555  5.54  0.  0.
556  5.55  0.  0.
557  5.56  0.  0.
558  5.57  0.  0.
559  5.58  0.  0.
560  5.59  0.  0.
561  5.60  0.  0.
562  5.61  0.  0.
563  5.62  0.  0.
564  5.63  0.  0.
565  5.64  0.  0.
566  5.65  0.  0.
567  5.66  0.  0.
568  5.67  0.  0.
569  5.68  0.  0.
570  5.69  0.  0.
571  5.70  0.  0.
572  5.71  0.  0.
573  5.72  0.  0.
574  5.73  0.  0.
575  5.74  0.  0.
576  5.75  0.  0.
577  5.76  0.  0.
578  5.77  0.  0.
579  5.78  0.  0.
580  5.79  0.  0.
581  5.80  0.  0.
582  5.81  0.  0.
583  5.82  0.  0.
584  5.83  0.  0.
585  5.84  0.  0.
586  5.85  0.  0.
587  5.86  0.  0.
588  5.87  0.  0.
589  5.88  0.  0.
590  5.89  0.  0.
591  5.90  0.  0.
592  5.91  0.  0.
593  5.92  0.  0.
594  5.93  0.  0.
595  5.94  0.  0.
596  5.95  0.  0.
597  5.96  0.  0.
598  5.97  0.  0.
599  5.98  0.  0.
600  5.99  0.  0.
1                         6.3651088780479E+00  5.3407655339238E-01
1  0.0000000000000E+00  5.7682185417018E-10 -3.7689402709873E-09
2  1.0000000000000E-02  1.2319110599173E-03 -1.0850714624482E-03
3  2.0000000000000E-02  4.9228008454763E-03 -4.3276246250869E-03
4  3.0000000000000E-02  1.1058170213443E-02 -9.6898350541211E-03
5  4.0000000000000E-02  1.9613957072003E-02 -1.7109190734573E-02
6  5.0000000000000E-02  3.0556689993520E-02 -2.6499277833929E-02
7  6.0000000000000E-02  4.3843701070381E-02 -3.7750866269103E-02
8  7.0000000000000E-02  5.9423395842725E-02 -5.0733280795153E-02
9  8.0000000000000E-02  7.7235577550069E-02 -6.5296039565260E-02
10  9.0000000000000E-02  9.7211822414180E-02 -8.1270738572129E-02
11  1.0000000000000E-01  1.1927590215439E-01 -9.8473157115662E-02
12  1.1000000000000E-01  1.4334424947489E-01 -1.1670555649332E-01
13  1.2000000000000E-01  1.6932646185196E-01 -1.3575914151627E-01
14  1.3000000000000E-01  1.9712583859258E-01 -1.5541665225142E-01
15  1.4000000000000E-01  2.2663994583901E-01 -1.7545505160480E-01
16  1.5000000000000E-01  2.5776120395982E-01 -1.9564827302327E-01
17  1.6000000000000E-01  2.9037749160084E-01 -2.1576999171538E-01
18  1.7000000000000E-01  3.2437276057000E-01 -2.3559638239541E-01
19  1.8000000000000E-01  3.5962765570179E-01 -2.5490882664295E-01
20  1.9000000000000E-01  3.9602013388838E-01 -2.7349653354823E-01
21  2.0000000000000E-01  4.3342607657767E-01 -2.9115903837446E-01
22  2.1000000000000E-01  4.7171989021997E-01 -3.0770854550542E-01
23  2.2000000000000E-01  5.1077508939573E-01 -3.2297208394085E-01
24  2.3000000000000E-01  5.5046485767109E-01 -3.3679344603381E-01
25  2.4000000000000E-01  5.9066258160497E-01 -3.4903488300445E-01
26  2.5000000000000E-01  6.3124235376476E-01 -3.5957853397968E-01
27  2.6000000000000E-01  6.7207944109350E-01 -3.6832756886141E-01
28  2.7000000000000E-01  7.1305071550292E-01 -3.7520702917171E-01
29  2.8000000000000E-01  7.5403504413791E-01 -3.8016435511543E-01
30  2.9000000000000E-01  7.9491363736136E-01 -3.8316959138718E-01
31  3.0000000000000E-01  8.3557035313632E-01 -3.8421526867555E-01
32  3.1000000000000E-01  8.7589195712644E-01 -3.8331596232540E-01
33  3.2000000000000E-01  9.1576833848761E-01 -3.8050753414939E-01
34  3.3000000000000E-01  9.5509268197425E-01 -3.7584606787248E-01
35  3.4000000000000E-01  9.9376159762423E-01 -3.6940651308655E-01
36  3.5000000000000E-01  1.0316752099071E+00 -3.6128105682469E-01
37  3.6000000000000E-01  1.0687372088136E+00 -3.5157724587828E-01
38  3.7000000000000E-01  1.1048548659183E+00 -3.4041588671478E-01
39  3.8000000000000E-01  1.1399390189603E+00 -3.2792875325647E-01
40  3.9000000000000E-01  1.1739040289365E+00 -3.1425613579741E-01
41  4.0000000000000E-01  1.2066677141051E+00 -2.9954426692146E-01
42  4.1000000000000E-01  1.2381512656145E+00 -2.8394266239418E-01
43  4.2000000000000E-01  1.2682791497307E+00 -2.6760141660131E-01
44  4.3000000000000E-01  1.2969790018081E+00 -2.5066849316338E-01
45  4.4000000000000E-01  1.3241815172343E+00 -2.3328705184878E-01
46  4.5000000000000E-01  1.3498203445898E+00 -2.1559285281844E-01
47  4.6000000000000E-01  1.3738319861694E+00 -1.9771177855665E-01
48  4.7000000000000E-01  1.3961557108470E+00 -1.7975751257428E-01
49  4.8000000000000E-01  1.4167334839986E+00 -1.6182941212086E-01
50  4.9000000000000E-01  1.4355099188518E+00 -1.4401060972635E-01
51  5.0000000000000E-01  1.4524322532038E+00 -1.2636637543880E-01
52  5.1000000000000E-01  1.4674503549386E+00 -1.0894276816143E-01
53  5.2000000000000E-01  1.4805167592002E+00 -9.1765600564779E-02
54  5.3000000000000E-01  1.4915867394341E+00 -7.4839737704154E-02
55  5.4000000000000E-01  1.5006184138155E+00 -5.8148744766891E-02
56  5.5000000000000E-01  1.5075728878366E+00 -4.1654894367904E-02
57  5.6000000000000E-01  1.5124144330548E+00 -2.5299538576625E-02
58  5.7000000000000E-01  1.5151107011988E+00 -9.0038454643306E-03
59  5.8000000000000E-01  1.5156329720240E+00  7.3301055144411E-03
60  5.9000000000000E-01  1.5139564324999E+00  2.3817880468589E-02
61  6.0000000000000E-01  1.5100604841231E+00  4.0590916904252E-02
62  6.1000000000000E-01  1.5039290743858E+00  5.7794440238512E-02
63  6.2000000000000E-01  1.4955510477133E+00  7.5585097776705E-02
64  6.3000000000000E-01  1.4849205105217E+00  9.4128341604460E-02
65  6.4000000000000E-01  1.4720372044535E+00  1.1359559611392E-01
66  6.5000000000000E-01  1.4569068813364E+00  1.3416124968096E-01
67  6.6000000000000E-01  1.4395416729938E+00  1.5599951326900E-01
68  6.7000000000000E-01  1.4199604487131E+00  1.7928119139871E-01
69  6.8000000000000E-01  1.3981891529786E+00  2.0417041293646E-01
70  6.9000000000000E-01  1.3742611159816E+00  2.3082137047830E-01
71  7.0000000000000E-01  1.3482173294605E+00  2.5937511770623E-01
72  7.1000000000000E-01  1.3201066805843E+00  2.8995647394864E-01
73  7.2000000000000E-01  1.2899861368877E+00  3.2267108427479E-01
74  7.3000000000000E-01  1.2579208756837E+00  3.5760268179776E-01
75  7.4000000000000E-01  1.2239843519296E+00  3.9481059646187E-01
76  7.5000000000000E-01  1.1882582991878E+00  4.3432755147627E-01
77  7.6000000000000E-01  1.1508326591055E+00  4.7615778476260E-01
78  7.7000000000000E-01  1.1118054357262E+00  5.2027552836195E-01
79  7.8000000000000E-01  1.0712824719217E+00  5.6662387375269E-01
80  7.9000000000000E-01  1.0293771463012E+00  6.1511404554037E-01
81  8.0000000000000E-01  9.8620999007350E-01  6.6562510007227E-01
82  8.1000000000000E-01  9.4190822451852E-01  7.1800405929197E-01
83  8.2000000000000E-01  8.9660522092639E-01  7.7206648368261E-01
84  8.3000000000000E-01  8.5043988608012E-01  8.2759748154977E-01
85  8.4000000000000E-01  8.0355597756482E-01  8.8435314527783E-01
86  8.5000000000000E-01  7.5610135436315E-01  9.4206239866404E-01
87  8.6000000000000E-01  7.0822716932312E-01  1.0004292331035E+00
88  8.7000000000000E-01  6.6008701113812E-01  1.0591353043767E+00
89  8.8000000000000E-01  6.1183600444056E-01  1.1178428561859E+00
90  8.9000000000000E-01  5.6362987745950E-01  1.1761979314948E+00
91  9.0000000000000E-01  5.1562400741146E-01  1.2338338282557E+00
92  9.1000000000000E-01  4.6797245436400E-01  1.2903747523273E+00
93  9.2000000000000E-01  4.2082699472021E-01  1.3454396173899E+00
94  9.3000000000000E-01  3.7433616570496E-01  1.3986459395088E+00
95  9.4000000000000E-01  3.2864433228092E-01  1.4496137727286E+00
96  9.5000000000000E-01  2.8389078777674E-01  1.4979696317484E+00
97  9.6000000000000E-01  2.4020889916676E-01  1.5433503483447E+00
98  9.7000000000000E-01  1.9772530740028E-01  1.5854068097784E+00
99  9.8000000000000E-01  1.5655919244163E-01  1.6238075299348E+00
100  9.9000000000000E-01  1.1682161175480E-01  1.6582420073734E+00
101  1.0000000000000E+00  7.8614919859564E-02  1.6884238287505E+00
102  1.0100000000000E+00  4.2032275312048E-02  1.7140934811606E+00
103  1.0200000000000E+00  7.1572400378298E-03  1.7350208427436E+00
104  1.0300000000000E+00 -2.5936525608321E-02  1.7510073273161E+00
105  1.0400000000000E+00 -5.7185470341064E-02  1.7618876656872E+00
106  1.0500000000000E+00 -8.6536262026518E-02  1.7675313135982E+00
107  1.0600000000000E+00 -1.1394580216042E-01  1.7678434837187E+00
108  1.0700000000000E+00 -1.3938114835741E-01  1.7627658066829E+00
109  1.0800000000000E+00 -1.6281935025409E-01  1.7522766336156E+00
110  1.0900000000000E+00 -1.8424720595351E-01  1.7363909997609E+00
111  1.1000000000000E+00 -2.0366094777308E-01  1.7151602755462E+00
112  1.1100000000000E+00 -2.2106586755210E-01  1.6886715374683E+00
113  1.1200000000000E+00 -2.3647589309164E-01  1.6570466964006E+00
114  1.1300000000000E+00 -2.4991312839421E-01  1.6204414250946E+00
115  1.1400000000000E+00 -2.6140737119936E-01  1.5790439295754E+00
116  1.1500000000000E+00 -2.7099562183101E-01  1.5330736106335E+00
117  1.1600000000000E+00 -2.7872159753910E-01  1.4827796614825E+00
118  1.1700000000000E+00 -2.8463526628645E-01  1.4284396456975E+00
119  1.1800000000000E+00 -2.8879241326166E-01  1.3703580955912E+00
120  1.1900000000000E+00 -2.9125425224382E-01  1.3088651650297E+00
121  1.2000000000000E+00 -2.9208709226138E-01  1.2443153621418E+00
122  1.2100000000000E+00 -2.9136206774691E-01  1.1770863763317E+00
123  1.2200000000000E+00 -2.8915493751791E-01  1.1075780001243E+00
124  1.2300000000000E+00 -2.8554595442260E-01  1.0362111297481E+00
125  1.2400000000000E+00 -2.8061980328010E-01  9.6342680852713E-01
126  1.2500000000000E+00 -2.7446559981029E-01  8.8968525413262E-01
127  1.2600000000000E+00 -2.6717693757327E-01  8.1546478445058E-01
128  1.2700000000000E+00 -2.5885196339313E-01  7.4126052670359E-01
129  1.2800000000000E+00 -2.4959345439006E-01  6.6758276082276E-01
130  1.2900000000000E+00 -2.3950886150299E-01  5.9495471053531E-01
131  1.3000000000000E+00 -2.2871027515033E-01  5.2390955376351E-01
132  1.3100000000000E+00 -2.1731425850318E-01  4.5498637799209E-01
133  1.3200000000000E+00 -2.0544148267228E-01  3.8872475598876E-01
134  1.3300000000000E+00 -1.9321608575774E-01  3.2565756186932E-01