Tm    ONCVPSP-4.0.1  r_core=   2.00859   1.60017   1.90331   1.40285
69.0000     23.0000      230112    zatom,zion,pspd
8      11   3     4   600     0    pspcod,pspxc,lmax,lloc,mmax,r2well
5.99000000  4.00000000  0.00000000    rchrg fchrg qchrg
2     2     2     2     0    nproj
1     1           extension_switch
0                         6.9727893657145E+00  9.9699918268527E-01
1  0.0000000000000E+00  7.4136086158916E-11 -2.0843055406616E-10
2  1.0000000000000E-02  4.4834714211087E-02 -2.7783891449521E-03
3  2.0000000000000E-02  8.9636176312545E-02 -5.5834148187776E-03
4  3.0000000000000E-02  1.3437099375555E-01 -8.4412079693481E-03
5  4.0000000000000E-02  1.7900549508365E-01 -1.1376893825658E-02
6  5.0000000000000E-02  2.2350559538698E-01 -1.4414102592898E-02
7  6.0000000000000E-02  2.6783666759321E-01 -1.7574496264179E-02
8  7.0000000000000E-02  3.1196342145316E-01 -2.0877316674559E-02
9  8.0000000000000E-02  3.5584979200501E-01 -2.4338959714598E-02
10  9.0000000000000E-02  3.9945883920926E-01 -2.7972580363560E-02
11  1.0000000000000E-01  4.4275266033880E-01 -3.1787732898987E-02
12  1.1000000000000E-01  4.8569231658479E-01 -3.5790050292522E-02
13  1.2000000000000E-01  5.2823777520052E-01 -3.9980966414429E-02
14  1.3000000000000E-01  5.7034786835417E-01 -4.4357484245047E-02
15  1.4000000000000E-01  6.1198026969761E-01 -4.8911992834102E-02
16  1.5000000000000E-01  6.5309148948391E-01 -5.3632135262614E-02
17  1.6000000000000E-01  6.9363688888332E-01 -5.8500729351600E-02
18  1.7000000000000E-01  7.3357071395609E-01 -6.3495742331522E-02
19  1.8000000000000E-01  7.7284614954429E-01 -6.8590320141537E-02
20  1.9000000000000E-01  8.1141539314394E-01 -7.3752871472929E-02
21  2.0000000000000E-01  8.4922974861581E-01 -7.8947206112321E-02
22  2.1000000000000E-01  8.8623973939017E-01 -8.4132726582193E-02
23  2.2000000000000E-01  9.2239524061872E-01 -8.9264671524701E-02
24  2.3000000000000E-01  9.5764562952858E-01 -9.4294408734799E-02
25  2.4000000000000E-01  9.9193995303993E-01 -9.9169775225960E-02
26  2.5000000000000E-01  1.0252271115224E+00 -1.0383546121108E-01
27  2.6000000000000E-01  1.0574560573882E+00 -1.0823343440801E-01
28  2.7000000000000E-01  1.0885760070524E+00 -1.1230340063801E-01
29  2.8000000000000E-01  1.1185366646359E+00 -1.1598329628149E-01
30  2.9000000000000E-01  1.1472884556476E+00 -1.1920980779220E-01
31  3.0000000000000E-01  1.1747827687515E+00 -1.2191891315366E-01
32  3.1000000000000E-01  1.2009722036208E+00 -1.2404643989246E-01
33  3.2000000000000E-01  1.2258108227847E+00 -1.2552863404671E-01
34  3.3000000000000E-01  1.2492544053040E+00 -1.2630273432586E-01
35  3.4000000000000E-01  1.2712607000542E+00 -1.2630754559377E-01
36  3.5000000000000E-01  1.2917896763674E+00 -1.2548400576106E-01
37  3.6000000000000E-01  1.3108037697657E+00 -1.2377574018734E-01
38  3.7000000000000E-01  1.3282681205351E+00 -1.2112959776952E-01
39  3.8000000000000E-01  1.3441508029121E+00 -1.1749616302852E-01
40  3.9000000000000E-01  1.3584230427155E+00 -1.1283023870353E-01
41  4.0000000000000E-01  1.3710594213211E+00 -1.0709129361903E-01
42  4.1000000000000E-01  1.3820380639790E+00 -1.0024387090329E-01
43  4.2000000000000E-01  1.3913408105816E+00 -9.2257952005976E-02
44  4.3000000000000E-01  1.3989533671272E+00 -8.3109272383321E-02
45  4.4000000000000E-01  1.4048654362767E+00 -7.2779585189467E-02
46  4.5000000000000E-01  1.4090708255680E+00 -6.1256869827009E-02
47  4.6000000000000E-01  1.4115675320396E+00 -4.8535482764313E-02
48  4.7000000000000E-01  1.4123578022133E+00 -3.4616248617194E-02
49  4.8000000000000E-01  1.4114481665984E+00 -1.9506490111577E-02
50  4.9000000000000E-01  1.4088494481001E+00 -3.2199961865710E-03
51  5.0000000000000E-01  1.4045767439498E+00  1.4223071842414E-02
52  5.1000000000000E-01  1.3986493810067E+00  3.2796335470278E-02
53  5.2000000000000E-01  1.3910908445275E+00  5.2467414273715E-02
54  5.3000000000000E-01  1.3819286807414E+00  7.3198199331246E-02
55  5.4000000000000E-01  1.3711943738115E+00  9.4945182194461E-02
56  5.5000000000000E-01  1.3589231980061E+00  1.1765983616939E-01
57  5.6000000000000E-01  1.3451540461368E+00  1.4128904604768E-01
58  5.7000000000000E-01  1.3299292355522E+00  1.6577558184002E-01
59  5.8000000000000E-01  1.3132942931903E+00  1.9105861151437E-01
60  5.9000000000000E-01  1.2952977214048E+00  2.1707424723784E-01
61  6.0000000000000E-01  1.2759907464682E+00  2.4375611916739E-01
62  6.1000000000000E-01  1.2554270518358E+00  2.7103597043811E-01
63  6.2000000000000E-01  1.2336624984106E+00  2.9884426666388E-01
64  6.3000000000000E-01  1.2107548341891E+00  3.2711081299780E-01
65  6.4000000000000E-01  1.1867633957858E+00  3.5576537160341E-01
66  6.5000000000000E-01  1.1617488044284E+00  3.8473827226673E-01
67  6.6000000000000E-01  1.1357726590867E+00  4.1396100883469E-01
68  6.7000000000000E-01  1.1088972294454E+00  4.4336681420068E-01
69  6.8000000000000E-01  1.0811851514492E+00  4.7289120667461E-01
70  6.9000000000000E-01  1.0526991281441E+00  5.0247250077144E-01
71  7.0000000000000E-01  1.0235016385067E+00  5.3205227573052E-01
72  7.1000000000000E-01  9.9365465689397E-01  5.6157579543550E-01
73  7.2000000000000E-01  9.6321938566049E-01  5.9099237383957E-01
74  7.3000000000000E-01  9.3225600338228E-01  6.2025568051071E-01
75  7.4000000000000E-01  9.0082343098733E-01  6.4932398149230E-01
76  7.5000000000000E-01  8.6897911793632E-01  6.7816031132169E-01
77  7.6000000000000E-01  8.3677885041382E-01  7.0673257275853E-01
78  7.7000000000000E-01  8.0427658328663E-01  7.3501356153877E-01
79  7.8000000000000E-01  7.7152429736304E-01  7.6298091428426E-01
80  7.9000000000000E-01  7.3857188324549E-01  7.9061697855398E-01
81  8.0000000000000E-01  7.0546705281158E-01  8.1790860491343E-01
82  8.1000000000000E-01  6.7225527908727E-01  8.4484686181716E-01
83  8.2000000000000E-01  6.3897976499296E-01  8.7142667503544E-01
84  8.3000000000000E-01  6.0568144115015E-01  8.9764639430374E-01
85  8.4000000000000E-01  5.7239899263640E-01  9.2350729082207E-01
86  8.5000000000000E-01  5.3916891427145E-01  9.4901299017361E-01
87  8.6000000000000E-01  5.0602559370932E-01  9.7416884615864E-01
88  8.7000000000000E-01  4.7300142130384E-01  9.9898126194195E-01
89  8.8000000000000E-01  4.4012692540873E-01  1.0234569657827E+00
90  8.9000000000000E-01  4.0743093147248E-01  1.0476022494443E+00
91  9.0000000000000E-01  3.7494074299312E-01  1.0714221781628E+00
92  9.1000000000000E-01  3.4268234211229E-01  1.0949197817775E+00
93  9.2000000000000E-01  3.1068060735264E-01  1.1180952372867E+00
94  9.3000000000000E-01  2.7895954574099E-01  1.1409450536827E+00
95  9.4000000000000E-01  2.4754253631195E-01  1.1634612704321E+00
96  9.5000000000000E-01  2.1645258175688E-01  1.1856306813969E+00
97  9.6000000000000E-01  1.8571256477114E-01  1.2074340963300E+00
98  9.7000000000000E-01  1.5534550546198E-01  1.2288456523220E+00
99  9.8000000000000E-01  1.2537481601052E-01  1.2498321877195E+00
100  9.9000000000000E-01  9.5824548637429E-02  1.2703526910666E+00
101  1.0000000000000E+00  6.6719632803972E-02  1.2903578375462E+00
102  1.0100000000000E+00  3.8086097490720E-02  1.3097896251984E+00
103  1.0200000000000E+00  9.9512743374295E-03  1.3285811228731E+00
104  1.0300000000000E+00 -1.7656022598034E-02  1.3466563414193E+00
105  1.0400000000000E+00 -4.4705344693838E-02  1.3639302390227E+00
106  1.0500000000000E+00 -7.1164488414588E-02  1.3803088708653E+00
107  1.0600000000000E+00 -9.6999410850248E-02  1.3956896923857E+00
108  1.0700000000000E+00 -1.2217418509908E-01  1.4099620243613E+00
109  1.0800000000000E+00 -1.4665099926282E-01  1.4230076867982E+00
110  1.0900000000000E+00 -1.7039020258074E-01  1.4347018071888E+00
111  1.1000000000000E+00 -1.9335040192679E-01  1.4449138070722E+00
112  1.1100000000000E+00 -2.1548861152557E-01  1.4535085689816E+00
113  1.1200000000000E+00 -2.3676045830190E-01  1.4603477837839E+00
114  1.1300000000000E+00 -2.5712044475626E-01  1.4652914760685E+00
115  1.1400000000000E+00 -2.7652227064985E-01  1.4681997026300E+00
116  1.1500000000000E+00 -2.9491921407391E-01  1.4689344161572E+00
117  1.1600000000000E+00 -3.1226457166597E-01  1.4673614829933E+00
118  1.1700000000000E+00 -3.2851215680220E-01  1.4633528402146E+00
119  1.1800000000000E+00 -3.4361685353651E-01  1.4567887732741E+00
120  1.1900000000000E+00 -3.5753522285621E-01  1.4475602910281E+00
121  1.2000000000000E+00 -3.7022615646761E-01  1.4355715700698E+00
122  1.2100000000000E+00 -3.8165157180886E-01  1.4207424349241E+00
123  1.2200000000000E+00 -3.9177714027655E-01  1.4030108347018E+00
124  1.2300000000000E+00 -4.0057303876201E-01  1.3823352703362E+00
125  1.2400000000000E+00 -4.0801471247552E-01  1.3586971193632E+00
126  1.2500000000000E+00 -4.1408363469461E-01  1.3321027973901E+00
127  1.2600000000000E+00 -4.1876804649680E-01  1.3025856868968E+00
128  1.2700000000000E+00 -4.2206365667317E-01  1.2702077546496E+00
129  1.2800000000000E+00 -4.2397427889410E-01  1.2350607688905E+00
130  1.2900000000000E+00 -4.2451237977395E-01  1.1972670164570E+00
131  1.3000000000000E+00 -4.2369950771550E-01  1.1569794079726E+00
132  1.3100000000000E+00 -4.2156656832722E-01  1.1143808462938E+00
133  1.3200000000000E+00 -4.1815390777128E-01  1.0696827194100E+00
134  1.3300000000000E+00 -4.1351116054378E-01  1.0231223637650E+00
135  1.3400000000000E+00 -4.0769681296823E-01  9.7495932766128E-01
136  1.3500000000000E+00 -4.0077742802085E-01  9.2547024679092E-01
137  1.3600000000000E+00 -3.9282647100866E-01  8.7494212502963E-01
138  1.3700000000000E+00 -3.8392266902400E-01  8.2366379322880E-01
139  1.3800000000000E+00 -3.7414782949464E-01  7.7191529395501E-01
140  1.3900000000000E+00 -3.6358403417629E-01  7.1995491031074E-01
141  1.4000000000000E+00 -3.5231016787193E-01  6.6800380510477E-01
142  1.4100000000000E+00 -3.4039761321121E-01  6.1622758092889E-01
143  1.4200000000000E+00 -3.2791092226627E-01  5.6474646188588E-01
144  1.4300000000000E+00 -3.1491440508705E-01  5.1367569041469E-01
145  1.4400000000000E+00 -3.0147369887924E-01  4.6313528688187E-01
146  1.4500000000000E+00 -2.8765541808144E-01  4.1324887686103E-01
147  1.4600000000000E+00 -2.7352685806833E-01  3.6414286345461E-01
148  1.4700000000000E+00 -2.5915567378014E-01  3.1594549477090E-01
149  1.4800000000000E+00 -2.4460954549121E-01  2.6878588920165E-01
150  1.4900000000000E+00 -2.2995583432426E-01  2.2279302624440E-01
151  1.5000000000000E+00 -2.1526123042594E-01  1.7809471195367E-01
152  1.5100000000000E+00 -2.0059139670244E-01  1.3481652782511E-01
153  1.5200000000000E+00 -1.8601061153186E-01  9.3080774229167E-02
154  1.5300000000000E+00 -1.7158141322755E-01  5.3005416380683E-02
155  1.5400000000000E+00 -1.5736424926180E-01  1.4703041886091E-02
156  1.5500000000000E+00 -1.4341713489353E-01 -2.1720153359287E-02
157  1.5600000000000E+00 -1.2979532222128E-01 -5.6165351208064E-02
158  1.5700000000000E+00 -1.1655098455107E-01 -8.8542051154292E-02
159  1.5800000000000E+00 -1.0373291829413E-01 -1.1876895847398E-01
160  1.5900000000000E+00 -9.1386265538907E-02 -1.4677481041609E-01
161  1.6000000000000E+00 -7.9552260043684E-02 -1.7249913188135E-01
162  1.6100000000000E+00 -6.8267999246581E-02 -1.9589291243824E-01
163  1.6200000000000E+00 -5.7566244662978E-02 -2.1691919724983E-01
164  1.6300000000000E+00 -4.7475252844947E-02 -2.3555358504682E-01
165  1.6400000000000E+00 -3.8018638788192E-02 -2.5178462721977E-01
166  1.6500000000000E+00 -2.9215273398861E-02 -2.6561412294522E-01
167  1.6600000000000E+00 -2.1079216363141E-02 -2.7705730607016E-01
168  1.6700000000000E+00 -1.3619685411625E-02 -2.8614292061470E-01
169  1.6800000000000E+00 -6.8410626830418E-03 -2.9291318260759E-01
170  1.6900000000000E+00 -7.4293852223881E-04 -2.9742362715796E-01
171  1.7000000000000E+00  4.6798072555225E-03 -2.9974284057260E-01
172  1.7100000000000E+00  9.4368869773021E-03 -2.9995207852966E-01
173  1.7200000000000E+00  1.3542450280217E-02 -2.9814477235340E-01
174  1.7300000000000E+00  1.7014893837525E-02 -2.9442592643690E-01
175  1.7400000000000E+00  1.9876637001114E-02 -2.8891141098521E-01
176  1.7500000000000E+00  2.2153865033473E-02 -2.8172715522741E-01
177  1.7600000000000E+00  2.3876241887235E-02 -2.7300824711630E-01
178  1.7700000000000E+00  2.5076595133299E-02 -2.6289794779225E-01
179  1.7800000000000E+00  2.5790573936397E-02 -2.5154662237394E-01
180  1.7900000000000E+00  2.6056287092972E-02 -2.3911061187682E-01
181  1.8000000000000E+00  2.5913918063395E-02 -2.2575103230723E-01
182  1.8100000000000E+00  2.5405325254786E-02 -2.1163253017569E-01
183  1.8200000000000E+00  2.4573629042700E-02 -1.9692199766041E-01
184  1.8300000000000E+00  2.3462788780189E-02 -1.8178725728542E-01
185  1.8400000000000E+00  2.2117174088758E-02 -1.6639572990722E-01
186  1.8500000000000E+00  2.0581133870619E-02 -1.5091309648155E-01
187  1.8600000000000E+00  1.8898566868675E-02 -1.3550196553703E-01
188  1.8700000000000E+00  1.7112497748560E-02 -1.2032055862545E-01
189  1.8800000000000E+00  1.5264661260465E-02 -1.0552142204428E-01
190  1.8900000000000E+00  1.3395096728935E-02 -9.1250172361256E-02
191  1.9000000000000E+00  1.1541786020642E-02 -7.7644367979232E-02
192  1.9100000000000E+00  9.7400862527697E-03 -6.4831822629514E-02
193  1.9200000000000E+00  8.0211008995850E-03 -5.2925864689838E-02
194  1.9300000000000E+00  6.4139221880089E-03 -4.2031551096182E-02
195  1.9400000000000E+00  4.9459129575682E-03 -3.2246470893886E-02
196  1.9500000000000E+00  3.6403869529169E-03 -2.3654210318659E-02
197  1.9600000000000E+00  2.5166860549247E-03 -1.6324482637690E-02
198  1.9700000000000E+00  1.5899571196101E-03 -1.0312445664658E-02
199  1.9800000000000E+00  8.7134004468654E-04 -5.6604513530456E-03
200  1.9900000000000E+00  3.6425654912658E-04 -2.3738182566533E-03
201  2.0000000000000E+00  8.1834253681714E-05 -5.3602950016633E-04
202  2.0100000000000E+00 -4.0935501550079E-06  2.6919494807022E-05
203  2.0200000000000E+00 -8.0236616034274E-07  5.2928283915465E-06
204  2.03  0. -0.
205  2.04 -0.  0.
206  2.05 -0. -0.
207  2.06  0.  0.
208  2.07  0.  0.
209  2.08  0.  0.
210  2.09  0.  0.
211  2.10  0.  0.
212  2.11  0.  0.
213  2.12  0.  0.
214  2.13  0.  0.
215  2.14  0.  0.
216  2.15  0.  0.
217  2.16  0.  0.
218  2.17  0.  0.
219  2.18  0.  0.
220  2.19  0.  0.
221  2.20  0.  0.
222  2.21  0.  0.
223  2.22  0.  0.
224  2.23  0.  0.
225  2.24  0.  0.
226  2.25  0.  0.
227  2.26  0.  0.
228  2.27  0.  0.
229  2.28  0.  0.
230  2.29  0.  0.
231  2.30  0.  0.
232  2.31  0.  0.
233  2.32  0.  0.
234  2.33  0.  0.
235  2.34  0.  0.
236  2.35  0.  0.
237  2.36  0.  0.
238  2.37  0.  0.
239  2.38  0.  0.
240  2.39  0.  0.
241  2.40  0.  0.
242  2.41  0.  0.
243  2.42  0.  0.
244  2.43  0.  0.
245  2.44  0.  0.
246  2.45  0.  0.
247  2.46  0.  0.
248  2.47  0.  0.
249  2.48  0.  0.
250  2.49  0.  0.
251  2.50  0.  0.
252  2.51  0.  0.
253  2.52  0.  0.
254  2.53  0.  0.
255  2.54  0.  0.
256  2.55  0.  0.
257  2.56  0.  0.
258  2.57  0.  0.
259  2.58  0.  0.
260  2.59  0.  0.
261  2.60  0.  0.
262  2.61  0.  0.
263  2.62  0.  0.
264  2.63  0.  0.
265  2.64  0.  0.
266  2.65  0.  0.
267  2.66  0.  0.
268  2.67  0.  0.
269  2.68  0.  0.
270  2.69  0.  0.
271  2.70  0.  0.
272  2.71  0.  0.
273  2.72  0.  0.
274  2.73  0.  0.
275  2.74  0.  0.
276  2.75  0.  0.
277  2.76  0.  0.
278  2.77  0.  0.
279  2.78  0.  0.
280  2.79  0.  0.
281  2.80  0.  0.
282  2.81  0.  0.
283  2.82  0.  0.
284  2.83  0.  0.
285  2.84  0.  0.
286  2.85  0.  0.
287  2.86  0.  0.
288  2.87  0.  0.
289  2.88  0.  0.
290  2.89  0.  0.
291  2.90  0.  0.
292  2.91  0.  0.
293  2.92  0.  0.
294  2.93  0.  0.
295  2.94  0.  0.
296  2.95  0.  0.
297  2.96  0.  0.
298  2.97  0.  0.
299  2.98  0.  0.
300  2.99  0.  0.
301  3.00  0.  0.
302  3.01  0.  0.
303  3.02  0.  0.
304  3.03  0.  0.
305  3.04  0.  0.
306  3.05  0.  0.
307  3.06  0.  0.
308  3.07  0.  0.
309  3.08  0.  0.
310  3.09  0.  0.
311  3.10  0.  0.
312  3.11  0.  0.
313  3.12  0.  0.
314  3.13  0.  0.
315  3.14  0.  0.
316  3.15  0.  0.
317  3.16  0.  0.
318  3.17  0.  0.
319  3.18  0.  0.
320  3.19  0.  0.
321  3.20  0.  0.
322  3.21  0.  0.
323  3.22  0.  0.
324  3.23  0.  0.
325  3.24  0.  0.
326  3.25  0.  0.
327  3.26  0.  0.
328  3.27  0.  0.
329  3.28  0.  0.
330  3.29  0.  0.
331  3.30  0.  0.
332  3.31  0.  0.
333  3.32  0.  0.
334  3.33  0.  0.
335  3.34  0.  0.
336  3.35  0.  0.
337  3.36  0.  0.
338  3.37  0.  0.
339  3.38  0.  0.
340  3.39  0.  0.
341  3.40  0.  0.
342  3.41  0.  0.
343  3.42  0.  0.
344  3.43  0.  0.
345  3.44  0.  0.
346  3.45  0.  0.
347  3.46  0.  0.
348  3.47  0.  0.
349  3.48  0.  0.
350  3.49  0.  0.
351  3.50  0.  0.
352  3.51  0.  0.
353  3.52  0.  0.
354  3.53  0.  0.
355  3.54  0.  0.
356  3.55  0.  0.
357  3.56  0.  0.
358  3.57  0.  0.
359  3.58  0.  0.
360  3.59  0.  0.
361  3.60  0.  0.
362  3.61  0.  0.
363  3.62  0.  0.
364  3.63  0.  0.
365  3.64  0.  0.
366  3.65  0.  0.
367  3.66  0.  0.
368  3.67  0.  0.
369  3.68  0.  0.
370  3.69  0.  0.
371  3.70  0.  0.
372  3.71  0.  0.
373  3.72  0.  0.
374  3.73  0.  0.
375  3.74  0.  0.
376  3.75  0.  0.
377  3.76  0.  0.
378  3.77  0.  0.
379  3.78  0.  0.
380  3.79  0.  0.
381  3.80  0.  0.
382  3.81  0.  0.
383  3.82  0.  0.
384  3.83  0.  0.
385  3.84  0.  0.
386  3.85  0.  0.
387  3.86  0.  0.
388  3.87  0.  0.
389  3.88  0.  0.
390  3.89  0.  0.
391  3.90  0.  0.
392  3.91  0.  0.
393  3.92  0.  0.
394  3.93  0.  0.
395  3.94  0.  0.
396  3.95  0.  0.
397  3.96  0.  0.
398  3.97  0.  0.
399  3.98  0.  0.
400  3.99  0.  0.
401  4.00  0.  0.
402  4.01  0.  0.
403  4.02  0.  0.
404  4.03  0.  0.
405  4.04  0.  0.
406  4.05  0.  0.
407  4.06  0.  0.
408  4.07  0.  0.
409  4.08  0.  0.
410  4.09  0.  0.
411  4.10  0.  0.
412  4.11  0.  0.
413  4.12  0.  0.
414  4.13  0.  0.
415  4.14  0.  0.
416  4.15  0.  0.
417  4.16  0.  0.
418  4.17  0.  0.
419  4.18  0.  0.
420  4.19  0.  0.
421  4.20  0.  0.
422  4.21  0.  0.
423  4.22  0.  0.
424  4.23  0.  0.
425  4.24  0.  0.
426  4.25  0.  0.
427  4.26  0.  0.
428  4.27  0.  0.
429  4.28  0.  0.
430  4.29  0.  0.
431  4.30  0.  0.
432  4.31  0.  0.
433  4.32  0.  0.
434  4.33  0.  0.
435  4.34  0.  0.
436  4.35  0.  0.
437  4.36  0.  0.
438  4.37  0.  0.
439  4.38  0.  0.
440  4.39  0.  0.
441  4.40  0.  0.
442  4.41  0.  0.
443  4.42  0.  0.
444  4.43  0.  0.
445  4.44  0.  0.
446  4.45  0.  0.
447  4.46  0.  0.
448  4.47  0.  0.
449  4.48  0.  0.
450  4.49  0.  0.
451  4.50  0.  0.
452  4.51  0.  0.
453  4.52  0.  0.
454  4.53  0.  0.
455  4.54  0.  0.
456  4.55  0.  0.
457  4.56  0.  0.
458  4.57  0.  0.
459  4.58  0.  0.
460  4.59  0.  0.
461  4.60  0.  0.
462  4.61  0.  0.
463  4.62  0.  0.
464  4.63  0.  0.
465  4.64  0.  0.
466  4.65  0.  0.
467  4.66  0.  0.
468  4.67  0.  0.
469  4.68  0.  0.
470  4.69  0.  0.
471  4.70  0.  0.
472  4.71  0.  0.
473  4.72  0.  0.
474  4.73  0.  0.
475  4.74  0.  0.
476  4.75  0.  0.
477  4.76  0.  0.
478  4.77  0.  0.
479  4.78  0.  0.
480  4.79  0.  0.
481  4.80  0.  0.
482  4.81  0.  0.
483  4.82  0.  0.
484  4.83  0.  0.
485  4.84  0.  0.
486  4.85  0.  0.
487  4.86  0.  0.
488  4.87  0.  0.
489  4.88  0.  0.
490  4.89  0.  0.
491  4.90  0.  0.
492  4.91  0.  0.
493  4.92  0.  0.
494  4.93  0.  0.
495  4.94  0.  0.
496  4.95  0.  0.
497  4.96  0.  0.
498  4.97  0.  0.
499  4.98  0.  0.
500  4.99  0.  0.
501  5.00  0.  0.
502  5.01  0.  0.
503  5.02  0.  0.
504  5.03  0.  0.
505  5.04  0.  0.
506  5.05  0.  0.
507  5.06  0.  0.
508  5.07  0.  0.
509  5.08  0.  0.
510  5.09  0.  0.
511  5.10  0.  0.
512  5.11  0.  0.
513  5.12  0.  0.
514  5.13  0.  0.
515  5.14  0.  0.
516  5.15  0.  0.
517  5.16  0.  0.
518  5.17  0.  0.
519  5.18  0.  0.
520  5.19  0.  0.
521  5.20  0.  0.
522  5.21  0.  0.
523  5.22  0.  0.
524  5.23  0.  0.
525  5.24  0.  0.
526  5.25  0.  0.
527  5.26  0.  0.
528  5.27  0.  0.
529  5.28  0.  0.
530  5.29  0.  0.
531  5.30  0.  0.
532  5.31  0.  0.
533  5.32  0.  0.
534  5.33  0.  0.
535  5.34  0.  0.
536  5.35  0.  0.
537  5.36  0.  0.
538  5.37  0.  0.
539  5.38  0.  0.
540  5.39  0.  0.
541  5.40  0.  0.
542  5.41  0.  0.
543  5.42  0.  0.
544  5.43  0.  0.
545  5.44  0.  0.
546  5.45  0.  0.
547  5.46  0.  0.
548  5.47  0.  0.
549  5.48  0.  0.
550  5.49  0.  0.
551  5.50  0.  0.
552  5.51  0.  0.
553  5.52  0.  0.
554  5.53  0.  0.
555  5.54  0.  0.
556  5.55  0.  0.
557  5.56  0.  0.
558  5.57  0.  0.
559  5.58  0.  0.
560  5.59  0.  0.
561  5.60  0.  0.
562  5.61  0.  0.
563  5.62  0.  0.
564  5.63  0.  0.
565  5.64  0.  0.
566  5.65  0.  0.
567  5.66  0.  0.
568  5.67  0.  0.
569  5.68  0.  0.
570  5.69  0.  0.
571  5.70  0.  0.
572  5.71  0.  0.
573  5.72  0.  0.
574  5.73  0.  0.
575  5.74  0.  0.
576  5.75  0.  0.
577  5.76  0.  0.
578  5.77  0.  0.
579  5.78  0.  0.
580  5.79  0.  0.
581  5.80  0.  0.
582  5.81  0.  0.
583  5.82  0.  0.
584  5.83  0.  0.
585  5.84  0.  0.
586  5.85  0.  0.
587  5.86  0.  0.
588  5.87  0.  0.
589  5.88  0.  0.
590  5.89  0.  0.
591  5.90  0.  0.
592  5.91  0.  0.
593  5.92  0.  0.
594  5.93  0.  0.
595  5.94  0.  0.
596  5.95  0.  0.
597  5.96  0.  0.
598  5.97  0.  0.
599  5.98  0.  0.
600  5.99  0.  0.
1                         6.4517776294631E+00  5.5776828420747E-01
1  0.0000000000000E+00  1.5146445209169E-10 -2.0064791148022E-09
2  1.0000000000000E-02  1.2090737082701E-03 -9.6089802620172E-04
3  2.0000000000000E-02  4.8320584257403E-03 -3.8336278890230E-03
4  3.0000000000000E-02  1.0856263228863E-02 -8.5884024142048E-03
5  4.0000000000000E-02  1.9260597505434E-02 -1.5175926827634E-02
6  5.0000000000000E-02  3.0015662106741E-02 -2.3527920825392E-02
7  6.0000000000000E-02  4.3083876480030E-02 -3.3557842088483E-02
8  7.0000000000000E-02  5.8419641292159E-02 -4.5161803918627E-02
9  8.0000000000000E-02  7.5969535903909E-02 -5.8219677665054E-02
10  9.0000000000000E-02  9.5672549894929E-02 -7.2596368671048E-02
11  1.0000000000000E-01  1.1746034767079E-01 -8.8143252607858E-02
12  1.1000000000000E-01  1.4125756500595E-01 -1.0469975729949E-01
13  1.2000000000000E-01  1.6698213618904E-01 -1.2209507348932E-01
14  1.3000000000000E-01  1.9454565024127E-01 -1.4014997647602E-01
15  1.4000000000000E-01  2.2385373447516E-01 -1.5867873916812E-01
16  1.5000000000000E-01  2.5480646345181E-01 -1.7749111589018E-01
17  1.6000000000000E-01  2.8729879118269E-01 -1.9639437523604E-01
18  1.7000000000000E-01  3.2122100420920E-01 -2.1519535942259E-01
19  1.8000000000000E-01  3.5645919298364E-01 -2.3370254696532E-01
20  1.9000000000000E-01  3.9289573877314E-01 -2.5172809509202E-01
21  2.0000000000000E-01  4.3040981311640E-01 -2.6908983814460E-01
22  2.1000000000000E-01  4.6887788668850E-01 -2.8561321830571E-01
23  2.2000000000000E-01  5.0817424427397E-01 -3.0113312533536E-01
24  2.3000000000000E-01  5.4817150241928E-01 -3.1549562262273E-01
25  2.4000000000000E-01  5.8874112623700E-01 -3.2855953775459E-01
26  2.5000000000000E-01  6.2975394176919E-01 -3.4019789697761E-01
27  2.6000000000000E-01  6.7108064029229E-01 -3.5029918438618E-01
28  2.7000000000000E-01  7.1259227096273E-01 -3.5876840839663E-01
29  2.8000000000000E-01  7.5416071826554E-01 -3.6552796006486E-01
30  2.9000000000000E-01  7.9565916083912E-01 -3.7051825005489E-01
31  3.0000000000000E-01  8.3696250841081E-01 -3.7369811355502E-01
32  3.1000000000000E-01  8.7794781378942E-01 -3.7504497514545E-01
33  3.2000000000000E-01  9.1849465712361E-01 -3.7455476852114E-01
34  3.3000000000000E-01  9.5848549994650E-01 -3.7224160903741E-01
35  3.4000000000000E-01  9.9780600688596E-01 -3.6813722024079E-01
36  3.5000000000000E-01  1.0363453333221E+00 -3.6229011883469E-01
37  3.6000000000000E-01  1.0739963777150E+00 -3.5476456587108E-01
38  3.7000000000000E-01  1.1106559978021E+00 -3.4563929530840E-01
39  3.8000000000000E-01  1.1462251903640E+00 -3.3500603438899E-01
40  3.9000000000000E-01  1.1806092347827E+00 -3.2296783351550E-01
41  4.0000000000000E-01  1.2137178011476E+00 -3.0963722639786E-01
42  4.1000000000000E-01  1.2454650241994E+00 -2.9513424414786E-01
43  4.2000000000000E-01  1.2757695449319E+00 -2.7958430966878E-01
44  4.3000000000000E-01  1.3045545221825E+00 -2.6311604107322E-01
45  4.4000000000000E-01  1.3317476170249E+00 -2.4585899491644E-01
46  4.5000000000000E-01  1.3572809532270E+00 -2.2794138171056E-01
47  4.6000000000000E-01  1.3810910574336E+00 -2.0948778744721E-01
48  4.7000000000000E-01  1.4031187830791E+00 -1.9061693566629E-01
49  4.8000000000000E-01  1.4233092223122E+00 -1.7143952493569E-01
50  4.9000000000000E-01  1.4416116104185E+00 -1.5205617642854E-01
51  5.0000000000000E-01  1.4579792273519E+00 -1.3255552558179E-01
52  5.1000000000000E-01  1.4723693010238E+00 -1.1301249058485E-01
53  5.2000000000000E-01  1.4847429169452E+00 -9.3486748677433E-02
54  5.3000000000000E-01  1.4950649386749E+00 -7.4021448939733E-02
55  5.4000000000000E-01  1.5033039432834E+00 -5.4642187450829E-02
56  5.5000000000000E-01  1.5094321757147E+00 -3.5356267399434E-02
57  5.6000000000000E-01  1.5134255254991E+00 -1.6152262987652E-02
58  5.7000000000000E-01  1.5152635287670E+00  3.0000981831214E-03
59  5.8000000000000E-01  1.5149293979178E+00  2.2149724062593E-02
60  5.9000000000000E-01  1.5124100806438E+00  4.1363613061949E-02
61  6.0000000000000E-01  1.5076963492810E+00  6.0725974583383E-02
62  6.1000000000000E-01  1.5007829206881E+00  8.0337020020645E-02
63  6.2000000000000E-01  1.4916686060487E+00  1.0031143435464E-01
64  6.3000000000000E-01  1.4803564891531E+00  1.2077654373559E-01
65  6.4000000000000E-01  1.4668541308836E+00  1.4187019962266E-01
66  6.5000000000000E-01  1.4511737967929E+00  1.6373840505309E-01
67  6.6000000000000E-01  1.4333327038638E+00  1.8653271335209E-01
68  6.7000000000000E-01  1.4133532817748E+00  2.1040743398186E-01
69  6.8000000000000E-01  1.3912634432963E+00  2.3551668418499E-01
70  6.9000000000000E-01  1.3670968578158E+00  2.6201132852159E-01
71  7.0000000000000E-01  1.3408932214556E+00  2.9003585126158E-01
72  7.1000000000000E-01  1.3126985168183E+00  3.1972520880817E-01
73  7.2000000000000E-01  1.2825652550853E+00  3.5120171084075E-01
74  7.3000000000000E-01  1.2505526930144E+00  3.8457197962888E-01
75  7.4000000000000E-01  1.2167270173377E+00  4.1992403695407E-01
76  7.5000000000000E-01  1.1811614891700E+00  4.5732456725735E-01
77  7.6000000000000E-01  1.1439365412848E+00  4.9681640400426E-01
78  7.7000000000000E-01  1.1051398215234E+00  5.3841628383170E-01
79  7.8000000000000E-01  1.0648661761531E+00  5.8211290983077E-01
80  7.9000000000000E-01  1.0232175676850E+00  6.2786536136717E-01
81  8.0000000000000E-01  9.8030292249930E-01  6.7560188319036E-01
82  8.1000000000000E-01  9.3623790458150E-01  7.2521908130270E-01
83  8.2000000000000E-01  8.9114461274435E-01  7.7658154722369E-01
84  8.3000000000000E-01  8.4515119987959E-01  8.2952192598318E-01
85  8.4000000000000E-01  7.9839141402571E-01  8.8384143650971E-01
86  8.5000000000000E-01  7.5100406233940E-01  9.3931084615494E-01
87  8.6000000000000E-01  7.0313240039127E-01  9.9567189403012E-01
88  8.7000000000000E-01  6.5492345054876E-01  1.0526391507460E+00
89  8.8000000000000E-01  6.0652725453324E-01  1.1099022951720E+00
90  8.9000000000000E-01  5.5809606652010E-01  1.1671287820874E+00
91  9.0000000000000E-01  5.0978349436107E-01  1.2239668682163E+00
92  9.1000000000000E-01  4.6174359762360E-01  1.2800489582394E+00
93  9.2000000000000E-01  4.1412995213504E-01  1.3349952270746E+00
94  9.3000000000000E-01  3.6709469156801E-01  1.3884174701270E+00
95  9.4000000000000E-01  3.2078753728418E-01  1.4399231294213E+00
96  9.5000000000000E-01  2.7535482814824E-01  1.4891194406294E+00
97  9.6000000000000E-01  2.3093856231503E-01  1.5356176440691E+00
98  9.7000000000000E-01  1.8767546306820E-01  1.5790372018180E+00
99  9.8000000000000E-01  1.4569608063818E-01  1.6190099632097E+00
100  9.9000000000000E-01  1.0512394154645E-01  1.6551842221528E+00
101  1.0000000000000E+00  6.6074756410082E-02  1.6872286119527E+00
102  1.0100000000000E+00  2.8655696301611E-02  1.7148357865736E+00
103  1.0200000000000E+00 -7.0352533006753E-03  1.7377258415195E+00
104  1.0300000000000E+00 -4.0909853200195E-02  1.7556494326612E+00
105  1.0400000000000E+00 -7.2890079486075E-02  1.7683905572971E+00
106  1.0500000000000E+00 -1.0290849614681E-01  1.7757689683975E+00
107  1.0600000000000E+00 -1.3090852833717E-01  1.7776422002221E+00
108  1.0700000000000E+00 -1.5684463519232E-01  1.7739071911358E+00
109  1.0800000000000E+00 -1.8068238300633E-01  1.7645014973613E+00
110  1.0900000000000E+00 -2.0239842153424E-01  1.7494040993526E+00
111  1.1000000000000E+00 -2.2198036810812E-01  1.7286358103117E+00
112  1.1100000000000E+00 -2.3942660612071E-01  1.7022593038529E+00
113  1.1200000000000E+00 -2.5474600618096E-01  1.6703787847414E+00
114  1.1300000000000E+00 -2.6795757983355E-01  1.6331393327840E+00
115  1.1400000000000E+00 -2.7909007710178E-01  1.5907259550686E+00
116  1.1500000000000E+00 -2.8818154021276E-01  1.5433623856401E+00
117  1.1600000000000E+00 -2.9527882663477E-01  1.4913096741065E+00
118  1.1700000000000E+00 -3.0043711494879E-01  1.4348646053641E+00
119  1.1800000000000E+00 -3.0371940703348E-01  1.3743579914008E+00
120  1.1900000000000E+00 -3.0519603951222E-01  1.3101528727386E+00
121  1.2000000000000E+00 -3.0494421633545E-01  1.2426426612920E+00
122  1.2100000000000E+00 -3.0304757271366E-01  1.1722492480885E+00
123  1.2200000000000E+00 -2.9959577829596E-01  1.0994210880845E+00
124  1.2300000000000E+00 -2.9468418450399E-01  1.0246312602270E+00
125  1.2400000000000E+00 -2.8841351718168E-01  9.4837548353008E-01
126  1.2500000000000E+00 -2.8088961119296E-01  8.7117004921259E-01
127  1.2600000000000E+00 -2.7222317827004E-01  7.9354960479972E-01
128  1.2700000000000E+00 -2.6252959315873E-01  7.1606469798025E-01
129  1.2800000000000E+00 -2.5192867598121E-01  6.3927895621224E-01
130  1.2900000000000E+00 -2.4054444066083E-01  5.6376574223876E-01
131  1.3000000000000E+00 -2.2850477012779E-01  4.9010408538252E-01
132  1.3100000000000E+00 -2.1594096890507E-01  4.1887364400922E-01
133  1.3200000000000E+00 -2.0298713250996E-01  3.5064840565633E-01
134  1.3300000000000E+00 -1.8977926072181E-01  2.8598877727598E-01