La    ONCVPSP-4.0.1  r_core=   2.10627   1.60918   1.85761   1.65804
57.0000     11.0000      230112    zatom,zion,pspd
8      11   3     4   600     0    pspcod,pspxc,lmax,lloc,mmax,r2well
5.99000000  5.00000000  0.00000000    rchrg fchrg qchrg
2     2     2     2     0    nproj
1     1           extension_switch
0                         6.5335735791386E+00  5.8209971911313E-01
1  0.0000000000000E+00  4.7784831647135E-11 -1.6514603573548E-10
2  1.0000000000000E-02  2.9076420653191E-02 -2.0120046264102E-03
3  2.0000000000000E-02  5.8156462738632E-02 -4.0629566588242E-03
4  3.0000000000000E-02  8.7243571744143E-02 -6.1913348713467E-03
5  4.0000000000000E-02  1.1634084275924E-01 -8.4346852972311E-03
6  5.0000000000000E-02  1.4545084899014E-01 -1.0829166123575E-02
7  6.0000000000000E-02  1.7457547469780E-01 -1.3409105986278E-02
8  7.0000000000000E-02  2.0371575397662E-01 -1.6206579936636E-02
9  8.0000000000000E-02  2.3287171674426E-01 -1.9251007185780E-02
10  9.0000000000000E-02  2.6204224325315E-01 -2.2568774529375E-02
11  1.0000000000000E-01  2.9122492836547E-01 -2.6182889114598E-02
12  1.1000000000000E-01  3.2041595675269E-01 -3.0112663936433E-02
13  1.2000000000000E-01  3.4960999009188E-01 -3.4373439143167E-02
14  1.3000000000000E-01  3.7880006723268E-01 -3.8976341894668E-02
15  1.4000000000000E-01  4.0797751820262E-01 -4.3928087154173E-02
16  1.5000000000000E-01  4.3713189280544E-01 -4.9230821408630E-02
17  1.6000000000000E-01  4.6625090444766E-01 -5.4882010907261E-02
18  1.7000000000000E-01  4.9532038970407E-01 -6.0874375586755E-02
19  1.8000000000000E-01  5.2432428400430E-01 -6.7195869418363E-02
20  1.9000000000000E-01  5.5324461369074E-01 -7.3829707470496E-02
21  2.0000000000000E-01  5.8206150456456E-01 -8.0754439535287E-02
22  2.1000000000000E-01  6.1075320690187E-01 -8.7944069721822E-02
23  2.2000000000000E-01  6.3929613678778E-01 -9.5368220977799E-02
24  2.3000000000000E-01  6.6766493348313E-01 -1.0299234306777E-01
25  2.4000000000000E-01  6.9583253240827E-01 -1.1077796211605E-01
26  2.5000000000000E-01  7.2377025320120E-01 -1.1868296941712E-01
27  2.6000000000000E-01  7.5144790218514E-01 -1.2666194683246E-01
28  2.7000000000000E-01  7.7883388846403E-01 -1.3466652573155E-01
29  2.8000000000000E-01  8.0589535275432E-01 -1.4264577610170E-01
30  2.9000000000000E-01  8.3259830795902E-01 -1.5054662214792E-01
31  3.0000000000000E-01  8.5890779039590E-01 -1.5831428043510E-01
32  3.1000000000000E-01  8.8478802050705E-01 -1.6589271639063E-01
33  3.2000000000000E-01  9.1020257180184E-01 -1.7322511479172E-01
34  3.3000000000000E-01  9.3511454672137E-01 -1.8025435970700E-01
35  3.4000000000000E-01  9.5948675805896E-01 -1.8692351925078E-01
36  3.5000000000000E-01  9.8328191452990E-01 -1.9317633043996E-01
37  3.6000000000000E-01  1.0064628090536E+00 -1.9895767942081E-01
38  3.7000000000000E-01  1.0289925082942E+00 -2.0421407235441E-01
39  3.8000000000000E-01  1.0508345420002E+00 -2.0889409231703E-01
40  3.9000000000000E-01  1.0719530906903E+00 -2.1294883768403E-01
41  4.0000000000000E-01  1.0923131702537E+00 -2.1633233762244E-01
42  4.1000000000000E-01  1.1118808120624E+00 -2.1900194051745E-01
43  4.2000000000000E-01  1.1306232372381E+00 -2.2091867139919E-01
44  4.3000000000000E-01  1.1485090237704E+00 -2.2204755471801E-01
45  4.4000000000000E-01  1.1655082652494E+00 -2.2235789913443E-01
46  4.5000000000000E-01  1.1815927200504E+00 -2.2182354134372E-01
47  4.6000000000000E-01  1.1967359498961E+00 -2.2042304633963E-01
48  4.7000000000000E-01  1.2109134468156E+00 -2.1813986193513E-01
49  4.8000000000000E-01  1.2241027476218E+00 -2.1496242579546E-01
50  4.9000000000000E-01  1.2362835351399E+00 -2.1088422369705E-01
51  5.0000000000000E-01  1.2474377255341E+00 -2.0590379820057E-01
52  5.1000000000000E-01  1.2575495412039E+00 -2.0002470741267E-01
53  5.2000000000000E-01  1.2666055688419E+00 -1.9325543400534E-01
54  5.3000000000000E-01  1.2745948023790E+00 -1.8560924515815E-01
55  5.4000000000000E-01  1.2815086706662E+00 -1.7710400458407E-01
56  5.5000000000000E-01  1.2873410498799E+00 -1.6776193828696E-01
57  5.6000000000000E-01  1.2920882607593E+00 -1.5760935617613E-01
58  5.7000000000000E-01  1.2957490509206E+00 -1.4667633212319E-01
59  5.8000000000000E-01  1.2983245626105E+00 -1.3499634548664E-01
60  5.9000000000000E-01  1.2998182863882E+00 -1.2260588754376E-01
61  6.0000000000000E-01  1.3002360013358E+00 -1.0954403665467E-01
62  6.1000000000000E-01  1.2995857025110E+00 -9.5852006335005E-02
63  6.2000000000000E-01  1.2978775164550E+00 -8.1572670728204E-02
64  6.3000000000000E-01  1.2951236056631E+00 -6.6750072242805E-02
65  6.4000000000000E-01  1.2913380630131E+00 -5.1428916350178E-02
66  6.5000000000000E-01  1.2865367972187E+00 -3.5654058723235E-02
67  6.6000000000000E-01  1.2807374104418E+00 -1.9469990032240E-02
68  6.7000000000000E-01  1.2739590692532E+00 -2.9203238004783E-03
69  6.8000000000000E-01  1.2662223701707E+00  1.3952707243013E-02
70  6.9000000000000E-01  1.2575492010384E+00  3.1108740893773E-02
71  7.0000000000000E-01  1.2479625995288E+00  4.8509755934870E-02
72  7.1000000000000E-01  1.2374866100556E+00  6.6120518103834E-02
73  7.2000000000000E-01  1.2261461403841E+00  8.3908996508683E-02
74  7.3000000000000E-01  1.2139668192057E+00  1.0184674566033E-01
75  7.4000000000000E-01  1.2009748559201E+00  1.1990924856156E-01
76  7.5000000000000E-01  1.1871969038254E+00  1.3807621660915E-01
77  7.6000000000000E-01  1.1726599278710E+00  1.5633184242798E-01
78  7.7000000000000E-01  1.1573910780672E+00  1.7466500215617E-01
79  7.8000000000000E-01  1.1414175695757E+00  1.9306940413904E-01
80  7.9000000000000E-01  1.1247665704326E+00  2.1154368145963E-01
81  8.0000000000000E-01  1.1074650977654E+00  2.3009142623296E-01
82  8.1000000000000E-01  1.0895399232778E+00  2.4872116411423E-01
83  8.2000000000000E-01  1.0710174886787E+00  2.6744626801271E-01
84  8.3000000000000E-01  1.0519238316301E+00  2.8628481056003E-01
85  8.4000000000000E-01  1.0322845226812E+00  3.0525935544630E-01
86  8.5000000000000E-01  1.0121246135524E+00  3.2439668830685E-01
87  8.6000000000000E-01  9.9146859701997E-01  3.4372748841075E-01
88  8.7000000000000E-01  9.7034037854496E-01  3.6328594296326E-01
89  8.8000000000000E-01  9.4876325967959E-01  3.8310930638501E-01
90  8.9000000000000E-01  9.2675993317860E-01  4.0323740746488E-01
91  9.0000000000000E-01  9.0435248963722E-01  4.2371210779656E-01
92  9.1000000000000E-01  8.8156243537724E-01  4.4457671539715E-01
93  9.2000000000000E-01  8.5841072120588E-01  4.6587535786523E-01
94  9.3000000000000E-01  8.3491778158026E-01  4.8765231986207E-01
95  9.4000000000000E-01  8.1110358362467E-01  5.0995135009039E-01
96  9.5000000000000E-01  7.8698768536799E-01  5.3281494329657E-01
97  9.6000000000000E-01  7.6258930249553E-01  5.5628360313311E-01
98  9.7000000000000E-01  7.3792738284309E-01  5.8039509198650E-01
99  9.8000000000000E-01  7.1302068780233E-01  6.0518367409961E-01
100  9.9000000000000E-01  6.8788787975379E-01  6.3067935849724E-01
101  1.0000000000000E+00  6.6254761459923E-01  6.5690714835822E-01
102  1.0100000000000E+00  6.3701863842666E-01  6.8388630356692E-01
103  1.0200000000000E+00  6.1131988730923E-01  7.1162962322360E-01
104  1.0300000000000E+00  5.8547058921418E-01  7.4014275489564E-01
105  1.0400000000000E+00  5.5949036697739E-01  7.6942353735420E-01
106  1.0500000000000E+00  5.3339934128451E-01  7.9946138346348E-01
107  1.0600000000000E+00  5.0721823258904E-01  8.3023670977576E-01
108  1.0700000000000E+00  4.8096846089103E-01  8.6172041923605E-01
109  1.0800000000000E+00  4.5467224229628E-01  8.9387344322050E-01
110  1.0900000000000E+00  4.2835268127498E-01  9.2664634892083E-01
111  1.1000000000000E+00  4.0203385753894E-01  9.5997901785181E-01
112  1.1100000000000E+00  3.7574090645826E-01  9.9380040099568E-01
113  1.1200000000000E+00  3.4950009194054E-01  1.0280283558155E+00
114  1.1300000000000E+00  3.2333887069768E-01  1.0625695700638E+00
115  1.1400000000000E+00  2.9728594682768E-01  1.0973195769930E+00
116  1.1500000000000E+00  2.7137131564014E-01  1.1321628662302E+00
117  1.1600000000000E+00  2.4562629565540E-01  1.1669730942257E+00
118  1.1700000000000E+00  2.2008354770822E-01  1.2016133978037E+00
119  1.1800000000000E+00  1.9477708008790E-01  1.2359368139544E+00
120  1.1900000000000E+00  1.6974223864872E-01  1.2697868085854E+00
121  1.2000000000000E+00  1.4501568082823E-01  1.3029979165127E+00
122  1.2100000000000E+00  1.2063533251779E-01  1.3353964945023E+00
123  1.2200000000000E+00  9.6640326740943E-02  1.3668015886654E+00
124  1.2300000000000E+00  7.3070923112897E-02  1.3970259169729E+00
125  1.2400000000000E+00  4.9968407080746E-02  1.4258769670539E+00
126  1.2500000000000E+00  2.7374967981618E-02  1.4531582087957E+00
127  1.2600000000000E+00  5.3335550071715E-03  1.4786704205449E+00
128  1.2700000000000E+00 -1.6112289767983E-02  1.5022131269033E+00
129  1.2800000000000E+00 -3.6918622046903E-02  1.5235861452244E+00
130  1.2900000000000E+00 -5.7041310298453E-02  1.5425912369137E+00
131  1.3000000000000E+00 -7.6436275567404E-02  1.5590338585092E+00
132  1.3100000000000E+00 -9.5059756423446E-02  1.5727250062526E+00
133  1.3200000000000E+00 -1.1286859915040E-01  1.5834831464425E+00
134  1.3300000000000E+00 -1.2982057301547E-01  1.5911362222476E+00
135  1.3400000000000E+00 -1.4587471014842E-01  1.5955237258603E+00
136  1.3500000000000E+00 -1.6099166919569E-01  1.5964988228469E+00
137  1.3600000000000E+00 -1.7513412148577E-01  1.5939305132788E+00
138  1.3700000000000E+00 -1.8826715794689E-01  1.5877058116918E+00
139  1.3800000000000E+00 -2.0035871444654E-01  1.5777319250881E+00
140  1.3900000000000E+00 -2.1138001257066E-01  1.5639384050491E+00
141  1.4000000000000E+00 -2.2130601211879E-01  1.5462792465313E+00
142  1.4100000000000E+00 -2.3011587075153E-01  1.5247349020386E+00
143  1.4200000000000E+00 -2.3779340528669E-01  1.4993141756027E+00
144  1.4300000000000E+00 -2.4432754808481E-01  1.4700559562888E+00
145  1.4400000000000E+00 -2.4971279079339E-01  1.4370307457858E+00
146  1.4500000000000E+00 -2.5394960641675E-01  1.4003419289777E+00
147  1.4600000000000E+00 -2.5704483923964E-01  1.3601267301970E+00
148  1.4700000000000E+00 -2.5901205055204E-01  1.3165567911255E+00
149  1.4800000000000E+00 -2.5987180638579E-01  1.2698382989638E+00
150  1.4900000000000E+00 -2.5965189157491E-01  1.2202115855188E+00
151  1.5000000000000E+00 -2.5838743237661E-01  1.1679501092084E+00
152  1.5100000000000E+00 -2.5612090764729E-01  1.1133587226772E+00
153  1.5200000000000E+00 -2.5290202610790E-01  1.0567711185657E+00
154  1.5300000000000E+00 -2.4878744459610E-01  9.9854633513444E-01
155  1.5400000000000E+00 -2.4384029933669E-01  9.3906419170981E-01
156  1.5500000000000E+00 -2.3812951917654E-01  8.7871951131563E-01
157  1.5600000000000E+00 -2.3172888640611E-01  8.1791497432091E-01
158  1.5700000000000E+00 -2.2471580721723E-01  7.5705243241095E-01
159  1.5800000000000E+00 -2.1716975001057E-01  6.9652249662551E-01
160  1.5900000000000E+00 -2.0917030563791E-01  6.3669219641759E-01
161  1.6000000000000E+00 -2.0079482259461E-01  5.7789051562206E-01
162  1.6100000000000E+00 -1.9211553251753E-01  5.2039132562219E-01
163  1.6200000000000E+00 -1.8319689377447E-01  4.6439971082687E-01
164  1.6300000000000E+00 -1.7409799111469E-01  4.1007850780344E-01
165  1.6400000000000E+00 -1.6487614342474E-01  3.5758042406858E-01
166  1.6500000000000E+00 -1.5558686759200E-01  3.0704902021204E-01
167  1.6600000000000E+00 -1.4628361754529E-01  2.5861780914197E-01
168  1.6700000000000E+00 -1.3701752690663E-01  2.1240932235882E-01
169  1.6800000000000E+00 -1.2783716701320E-01  1.6853423988479E-01
170  1.6900000000000E+00 -1.1878832374908E-01  1.2709060318476E-01
171  1.7000000000000E+00 -1.0991379450190E-01  8.8163114457379E-02
172  1.7100000000000E+00 -1.0125320690432E-01  5.1822529090220E-02
173  1.7200000000000E+00 -9.2842860829683E-02  1.8125147172563E-02
174  1.7300000000000E+00 -8.4715594956989E-02 -1.2887590636301E-02
175  1.7400000000000E+00 -7.6900678996960E-02 -4.1189398622235E-02
176  1.7500000000000E+00 -6.9423732499744E-02 -6.6769329305530E-02
177  1.7600000000000E+00 -6.2306670920685E-02 -8.9631842010783E-02
178  1.7700000000000E+00 -5.5567679402111E-02 -1.0979675513818E-01
179  1.7800000000000E+00 -4.9221214517911E-02 -1.2729908141659E-01
180  1.7900000000000E+00 -4.3278033981875E-02 -1.4218874649200E-01
181  1.8000000000000E+00 -3.7745254070736E-02 -1.5453019228616E-01
182  1.8100000000000E+00 -3.2626434322480E-02 -1.6440186727729E-01
183  1.8200000000000E+00 -2.7921688794025E-02 -1.7189560710524E-01
184  1.8300000000000E+00 -2.3627822972717E-02 -1.7711590962694E-01
185  1.8400000000000E+00 -1.9738495190411E-02 -1.8017910962206E-01
186  1.8500000000000E+00 -1.6244401196958E-02 -1.8121245911531E-01
187  1.8600000000000E+00 -1.3133480353673E-02 -1.8035312009158E-01
188  1.8700000000000E+00 -1.0391141700605E-02 -1.7774707727069E-01
189  1.8800000000000E+00 -8.0005079960141E-03 -1.7354797921921E-01
190  1.8900000000000E+00 -5.9426756780751E-03 -1.6791591667514E-01
191  1.9000000000000E+00 -4.1969885318007E-03 -1.6101614768863E-01
192  1.9100000000000E+00 -2.7413227593854E-03 -1.5301777947326E-01
193  1.9200000000000E+00 -1.5523810156943E-03 -1.4409241746421E-01
194  1.9300000000000E+00 -6.0599291353293E-04 -1.3441279227235E-01
195  1.9400000000000E+00  1.2258050725472E-04 -1.2415137519983E-01
196  1.9500000000000E+00  6.5834116405261E-04 -1.1347899458062E-01
197  1.9600000000000E+00  1.0262494085317E-03 -1.0256346210025E-01
198  1.9700000000000E+00  1.2509240875895E-03 -9.1568222264031E-02
199  1.9800000000000E+00  1.3563384032450E-03 -8.0651008339611E-02
200  1.9900000000000E+00  1.3655738341984E-03 -6.9962675019024E-02
201  2.0000000000000E+00  1.3004564786189E-03 -5.9645735370195E-02
202  2.0100000000000E+00  1.1801612255477E-03 -4.9829856138811E-02
203  2.0200000000000E+00  1.0219470463394E-03 -4.0633561812634E-02
204  2.0300000000000E+00  8.4356426520109E-04 -3.2170930389500E-02
205  2.0400000000000E+00  6.6044585604951E-04 -2.4543265588481E-02
206  2.0500000000000E+00  4.8562782636547E-04 -1.7838561086426E-02
207  2.0600000000000E+00  3.2957117146688E-04 -1.2130726627196E-02
208  2.0700000000000E+00  2.0003756974344E-04 -7.4795408502113E-03
209  2.0800000000000E+00  1.0193639763716E-04 -3.9280699985999E-03
210  2.0900000000000E+00  3.7045717744043E-05 -1.4932665220034E-03
211  2.1000000000000E+00  6.1050219456717E-06 -2.6343048085321E-04
212  2.1100000000000E+00 -9.3859103279079E-07  4.2149078809764E-05
213  2.1200000000000E+00  1.0570742634748E-07 -4.5620657477724E-06
214  2.13  0. -0.
215  2.14 -0.  0.
216  2.15 -0.  0.
217  2.16  0.  0.
218  2.17  0.  0.
219  2.18  0.  0.
220  2.19  0.  0.
221  2.20  0.  0.
222  2.21  0.  0.
223  2.22  0.  0.
224  2.23  0.  0.
225  2.24  0.  0.
226  2.25  0.  0.
227  2.26  0.  0.
228  2.27  0.  0.
229  2.28  0.  0.
230  2.29  0.  0.
231  2.30  0.  0.
232  2.31  0.  0.
233  2.32  0.  0.
234  2.33  0.  0.
235  2.34  0.  0.
236  2.35  0.  0.
237  2.36  0.  0.
238  2.37  0.  0.
239  2.38  0.  0.
240  2.39  0.  0.
241  2.40  0.  0.
242  2.41  0.  0.
243  2.42  0.  0.
244  2.43  0.  0.
245  2.44  0.  0.
246  2.45  0.  0.
247  2.46  0.  0.
248  2.47  0.  0.
249  2.48  0.  0.
250  2.49  0.  0.
251  2.50  0.  0.
252  2.51  0.  0.
253  2.52  0.  0.
254  2.53  0.  0.
255  2.54  0.  0.
256  2.55  0.  0.
257  2.56  0.  0.
258  2.57  0.  0.
259  2.58  0.  0.
260  2.59  0.  0.
261  2.60  0.  0.
262  2.61  0.  0.
263  2.62  0.  0.
264  2.63  0.  0.
265  2.64  0.  0.
266  2.65  0.  0.
267  2.66  0.  0.
268  2.67  0.  0.
269  2.68  0.  0.
270  2.69  0.  0.
271  2.70  0.  0.
272  2.71  0.  0.
273  2.72  0.  0.
274  2.73  0.  0.
275  2.74  0.  0.
276  2.75  0.  0.
277  2.76  0.  0.
278  2.77  0.  0.
279  2.78  0.  0.
280  2.79  0.  0.
281  2.80  0.  0.
282  2.81  0.  0.
283  2.82  0.  0.
284  2.83  0.  0.
285  2.84  0.  0.
286  2.85  0.  0.
287  2.86  0.  0.
288  2.87  0.  0.
289  2.88  0.  0.
290  2.89  0.  0.
291  2.90  0.  0.
292  2.91  0.  0.
293  2.92  0.  0.
294  2.93  0.  0.
295  2.94  0.  0.
296  2.95  0.  0.
297  2.96  0.  0.
298  2.97  0.  0.
299  2.98  0.  0.
300  2.99  0.  0.
301  3.00  0.  0.
302  3.01  0.  0.
303  3.02  0.  0.
304  3.03  0.  0.
305  3.04  0.  0.
306  3.05  0.  0.
307  3.06  0.  0.
308  3.07  0.  0.
309  3.08  0.  0.
310  3.09  0.  0.
311  3.10  0.  0.
312  3.11  0.  0.
313  3.12  0.  0.
314  3.13  0.  0.
315  3.14  0.  0.
316  3.15  0.  0.
317  3.16  0.  0.
318  3.17  0.  0.
319  3.18  0.  0.
320  3.19  0.  0.
321  3.20  0.  0.
322  3.21  0.  0.
323  3.22  0.  0.
324  3.23  0.  0.
325  3.24  0.  0.
326  3.25  0.  0.
327  3.26  0.  0.
328  3.27  0.  0.
329  3.28  0.  0.
330  3.29  0.  0.
331  3.30  0.  0.
332  3.31  0.  0.
333  3.32  0.  0.
334  3.33  0.  0.
335  3.34  0.  0.
336  3.35  0.  0.
337  3.36  0.  0.
338  3.37  0.  0.
339  3.38  0.  0.
340  3.39  0.  0.
341  3.40  0.  0.
342  3.41  0.  0.
343  3.42  0.  0.
344  3.43  0.  0.
345  3.44  0.  0.
346  3.45  0.  0.
347  3.46  0.  0.
348  3.47  0.  0.
349  3.48  0.  0.
350  3.49  0.  0.
351  3.50  0.  0.
352  3.51  0.  0.
353  3.52  0.  0.
354  3.53  0.  0.
355  3.54  0.  0.
356  3.55  0.  0.
357  3.56  0.  0.
358  3.57  0.  0.
359  3.58  0.  0.
360  3.59  0.  0.
361  3.60  0.  0.
362  3.61  0.  0.
363  3.62  0.  0.
364  3.63  0.  0.
365  3.64  0.  0.
366  3.65  0.  0.
367  3.66  0.  0.
368  3.67  0.  0.
369  3.68  0.  0.
370  3.69  0.  0.
371  3.70  0.  0.
372  3.71  0.  0.
373  3.72  0.  0.
374  3.73  0.  0.
375  3.74  0.  0.
376  3.75  0.  0.
377  3.76  0.  0.
378  3.77  0.  0.
379  3.78  0.  0.
380  3.79  0.  0.
381  3.80  0.  0.
382  3.81  0.  0.
383  3.82  0.  0.
384  3.83  0.  0.
385  3.84  0.  0.
386  3.85  0.  0.
387  3.86  0.  0.
388  3.87  0.  0.
389  3.88  0.  0.
390  3.89  0.  0.
391  3.90  0.  0.
392  3.91  0.  0.
393  3.92  0.  0.
394  3.93  0.  0.
395  3.94  0.  0.
396  3.95  0.  0.
397  3.96  0.  0.
398  3.97  0.  0.
399  3.98  0.  0.
400  3.99  0.  0.
401  4.00  0.  0.
402  4.01  0.  0.
403  4.02  0.  0.
404  4.03  0.  0.
405  4.04  0.  0.
406  4.05  0.  0.
407  4.06  0.  0.
408  4.07  0.  0.
409  4.08  0.  0.
410  4.09  0.  0.
411  4.10  0.  0.
412  4.11  0.  0.
413  4.12  0.  0.
414  4.13  0.  0.
415  4.14  0.  0.
416  4.15  0.  0.
417  4.16  0.  0.
418  4.17  0.  0.
419  4.18  0.  0.
420  4.19  0.  0.
421  4.20  0.  0.
422  4.21  0.  0.
423  4.22  0.  0.
424  4.23  0.  0.
425  4.24  0.  0.
426  4.25  0.  0.
427  4.26  0.  0.
428  4.27  0.  0.
429  4.28  0.  0.
430  4.29  0.  0.
431  4.30  0.  0.
432  4.31  0.  0.
433  4.32  0.  0.
434  4.33  0.  0.
435  4.34  0.  0.
436  4.35  0.  0.
437  4.36  0.  0.
438  4.37  0.  0.
439  4.38  0.  0.
440  4.39  0.  0.
441  4.40  0.  0.
442  4.41  0.  0.
443  4.42  0.  0.
444  4.43  0.  0.
445  4.44  0.  0.
446  4.45  0.  0.
447  4.46  0.  0.
448  4.47  0.  0.
449  4.48  0.  0.
450  4.49  0.  0.
451  4.50  0.  0.
452  4.51  0.  0.
453  4.52  0.  0.
454  4.53  0.  0.
455  4.54  0.  0.
456  4.55  0.  0.
457  4.56  0.  0.
458  4.57  0.  0.
459  4.58  0.  0.
460  4.59  0.  0.
461  4.60  0.  0.
462  4.61  0.  0.
463  4.62  0.  0.
464  4.63  0.  0.
465  4.64  0.  0.
466  4.65  0.  0.
467  4.66  0.  0.
468  4.67  0.  0.
469  4.68  0.  0.
470  4.69  0.  0.
471  4.70  0.  0.
472  4.71  0.  0.
473  4.72  0.  0.
474  4.73  0.  0.
475  4.74  0.  0.
476  4.75  0.  0.
477  4.76  0.  0.
478  4.77  0.  0.
479  4.78  0.  0.
480  4.79  0.  0.
481  4.80  0.  0.
482  4.81  0.  0.
483  4.82  0.  0.
484  4.83  0.  0.
485  4.84  0.  0.
486  4.85  0.  0.
487  4.86  0.  0.
488  4.87  0.  0.
489  4.88  0.  0.
490  4.89  0.  0.
491  4.90  0.  0.
492  4.91  0.  0.
493  4.92  0.  0.
494  4.93  0.  0.
495  4.94  0.  0.
496  4.95  0.  0.
497  4.96  0.  0.
498  4.97  0.  0.
499  4.98  0.  0.
500  4.99  0.  0.
501  5.00  0.  0.
502  5.01  0.  0.
503  5.02  0.  0.
504  5.03  0.  0.
505  5.04  0.  0.
506  5.05  0.  0.
507  5.06  0.  0.
508  5.07  0.  0.
509  5.08  0.  0.
510  5.09  0.  0.
511  5.10  0.  0.
512  5.11  0.  0.
513  5.12  0.  0.
514  5.13  0.  0.
515  5.14  0.  0.
516  5.15  0.  0.
517  5.16  0.  0.
518  5.17  0.  0.
519  5.18  0.  0.
520  5.19  0.  0.
521  5.20  0.  0.
522  5.21  0.  0.
523  5.22  0.  0.
524  5.23  0.  0.
525  5.24  0.  0.
526  5.25  0.  0.
527  5.26  0.  0.
528  5.27  0.  0.
529  5.28  0.  0.
530  5.29  0.  0.
531  5.30  0.  0.
532  5.31  0.  0.
533  5.32  0.  0.
534  5.33  0.  0.
535  5.34  0.  0.
536  5.35  0.  0.
537  5.36  0.  0.
538  5.37  0.  0.
539  5.38  0.  0.
540  5.39  0.  0.
541  5.40  0.  0.
542  5.41  0.  0.
543  5.42  0.  0.
544  5.43  0.  0.
545  5.44  0.  0.
546  5.45  0.  0.
547  5.46  0.  0.
548  5.47  0.  0.
549  5.48  0.  0.
550  5.49  0.  0.
551  5.50  0.  0.
552  5.51  0.  0.
553  5.52  0.  0.
554  5.53  0.  0.
555  5.54  0.  0.
556  5.55  0.  0.
557  5.56  0.  0.
558  5.57  0.  0.
559  5.58  0.  0.
560  5.59  0.  0.
561  5.60  0.  0.
562  5.61  0.  0.
563  5.62  0.  0.
564  5.63  0.  0.
565  5.64  0.  0.
566  5.65  0.  0.
567  5.66  0.  0.
568  5.67  0.  0.
569  5.68  0.  0.
570  5.69  0.  0.
571  5.70  0.  0.
572  5.71  0.  0.
573  5.72  0.  0.
574  5.73  0.  0.
575  5.74  0.  0.
576  5.75  0.  0.
577  5.76  0.  0.
578  5.77  0.  0.
579  5.78  0.  0.
580  5.79  0.  0.
581  5.80  0.  0.
582  5.81  0.  0.
583  5.82  0.  0.
584  5.83  0.  0.
585  5.84  0.  0.
586  5.85  0.  0.
587  5.86  0.  0.
588  5.87  0.  0.
589  5.88  0.  0.
590  5.89  0.  0.
591  5.90  0.  0.
592  5.91  0.  0.
593  5.92  0.  0.
594  5.93  0.  0.
595  5.94  0.  0.
596  5.95  0.  0.
597  5.96  0.  0.
598  5.97  0.  0.
599  5.98  0.  0.
600  5.99  0.  0.
1                         6.0447299705564E+00  9.2662284699986E-01
1  0.0000000000000E+00  1.6965459995189E-08 -3.6128691288662E-08
2  1.0000000000000E-02  1.5397922452459E-03 -1.9504761481951E-03
3  2.0000000000000E-02  6.1349373113845E-03 -7.7529869651074E-03
4  3.0000000000000E-02  1.3713236787283E-02 -1.7261828939678E-02
5  4.0000000000000E-02  2.4156005301692E-02 -3.0237639453891E-02
6  5.0000000000000E-02  3.7300503649390E-02 -4.6352537364608E-02
7  6.0000000000000E-02  5.2943276179100E-02 -6.5197172782134E-02
8  7.0000000000000E-02  7.0844325076291E-02 -8.6289542484099E-02
9  8.0000000000000E-02  9.0732037208530E-02 -1.0908539127451E-01
10  9.0000000000000E-02  1.1230876388712E-01 -1.3298998700657E-01
11  1.0000000000000E-01  1.3525694053791E-01 -1.5737102857958E-01
12  1.1000000000000E-01  1.5924562213114E-01 -1.8157242255985E-01
13  1.2000000000000E-01  1.8393730151619E-01 -2.0492864563789E-01
14  1.3000000000000E-01  2.0899487171820E-01 -2.2677939729180E-01
15  1.4000000000000E-01  2.3408858990435E-01 -2.4648424004713E-01
16  1.5000000000000E-01  2.5890290019051E-01 -2.6343692375805E-01
17  1.6000000000000E-01  2.8314297475342E-01 -2.7707909542142E-01
18  1.7000000000000E-01  3.0654083780157E-01 -2.8691310709316E-01
19  1.8000000000000E-01  3.2886094475184E-01 -2.9251365130879E-01
20  1.9000000000000E-01  3.4990509931350E-01 -2.9353797570835E-01
21  2.0000000000000E-01  3.6951660390594E-01 -2.8973445591433E-01
22  2.1000000000000E-01  3.8758355369140E-01 -2.8094933759350E-01
23  2.2000000000000E-01  4.0404120120848E-01 -2.6713149444544E-01
24  2.3000000000000E-01  4.1887333682888E-01 -2.4833508791771E-01
25  2.4000000000000E-01  4.3211264967948E-01 -2.2472005599998E-01
26  2.5000000000000E-01  4.4384005390253E-01 -1.9655040169634E-01
27  2.6000000000000E-01  4.5418298577711E-01 -1.6419029587723E-01
28  2.7000000000000E-01  4.6331269789613E-01 -1.2809805331215E-01
29  2.8000000000000E-01  4.7144059688085E-01 -8.8818083917057E-02
30  2.9000000000000E-01  4.7881369062371E-01 -4.6970962765159E-02
31  3.0000000000000E-01  4.8570922939363E-01 -3.2418013843854E-03
32  3.1000000000000E-01  4.9242864195360E-01  4.1632861481219E-02
33  3.2000000000000E-01  4.9929088279001E-01  8.6879399852972E-02
34  3.3000000000000E-01  5.0662531933387E-01  1.3170239451781E-01
35  3.4000000000000E-01  5.1476429840386E-01  1.7530058263622E-01
36  3.5000000000000E-01  5.2403553879967E-01  2.1688314856572E-01
37  3.6000000000000E-01  5.3475450185495E-01  2.5568603158737E-01
38  3.7000000000000E-01  5.4721689370516E-01  2.9098792260403E-01
39  3.8000000000000E-01  5.6169145197734E-01  3.2212562468139E-01
40  3.9000000000000E-01  5.7841316556343E-01  3.4850846152552E-01
41  4.0000000000000E-01  5.9757706915008E-01  3.6963143350564E-01
42  4.1000000000000E-01  6.1933274435825E-01  3.8508684239151E-01
43  4.2000000000000E-01  6.4377964686118E-01  3.9457413321303E-01
44  4.3000000000000E-01  6.7096336391842E-01  3.9790773408704E-01
45  4.4000000000000E-01  7.0087288965463E-01  3.9502271190927E-01
46  4.5000000000000E-01  7.3343898643552E-01  3.8597810280169E-01
47  4.6000000000000E-01  7.6853368019952E-01  3.7095782037812E-01
48  4.7000000000000E-01  8.0597091597438E-01  3.5026909141823E-01
49  4.8000000000000E-01  8.4550837744853E-01  3.2433841654363E-01
50  4.9000000000000E-01  8.8685045180285E-01  2.9370510205432E-01
51  5.0000000000000E-01  9.2965229847157E-01  2.5901245727609E-01
52  5.1000000000000E-01  9.7352495852670E-01  2.2099679865431E-01
53  5.2000000000000E-01  1.0180414203964E+00  1.8047444648759E-01
54  5.3000000000000E-01  1.0627435380462E+00  1.3832694174270E-01
55  5.4000000000000E-01  1.1071496799623E+00  9.5484747994748E-02
56  5.5000000000000E-01  1.1507629716399E+00  5.2909736429940E-02
57  5.6000000000000E-01  1.1930799811099E+00  1.1576779348215E-02
58  5.7000000000000E-01  1.2335996866242E+00 -2.7545200876419E-02
59  5.8000000000000E-01  1.2718325581748E+00 -6.3512365356056E-02
60  5.9000000000000E-01  1.3073095802307E+00 -9.5424904499823E-02
61  6.0000000000000E-01  1.3395910420445E+00 -1.2244542460546E-01
62  6.1000000000000E-01  1.3682749241636E+00 -1.4381640970818E-01
63  6.2000000000000E-01  1.3930047153721E+00 -1.5887640622162E-01
64  6.3000000000000E-01  1.4134765031065E+00 -1.6707459790257E-01
65  6.4000000000000E-01  1.4294451923123E+00 -1.6798346529992E-01
66  6.5000000000000E-01  1.4407297225237E+00 -1.6130925667371E-01
67  6.6000000000000E-01  1.4472171704229E+00 -1.4690003583123E-01
68  6.7000000000000E-01  1.4488656449486E+00 -1.2475111575186E-01
69  6.8000000000000E-01  1.4457059038289E+00 -9.5007734489233E-02
70  6.9000000000000E-01  1.4378416438197E+00 -5.7964880778766E-02
71  7.0000000000000E-01  1.4254484415016E+00 -1.4064230117588E-02
72  7.1000000000000E-01  1.4087713467753E+00  3.6111793182688E-02
73  7.2000000000000E-01  1.3881211567282E+00  9.1848757352257E-02
74  7.3000000000000E-01  1.3638694228314E+00  1.5231164287053E-01
75  7.4000000000000E-01  1.3364422689961E+00  2.1655876273446E-01
76  7.5000000000000E-01  1.3063131213919E+00  2.8355795550183E-01
77  7.6000000000000E-01  1.2739944726497E+00  3.5220477704468E-01
78  7.7000000000000E-01  1.2400288227208E+00  4.2134237530198E-01
79  7.8000000000000E-01  1.2049789558359E+00  4.8978269615264E-01
80  7.9000000000000E-01  1.1694177273626E+00  5.5632863858579E-01
81  8.0000000000000E-01  1.1339175455962E+00  6.1979675425921E-01
82  8.1000000000000E-01  1.0990397413875E+00  6.7904007082325E-01
83  8.2000000000000E-01  1.0653240228413E+00  7.3297061042228E-01
84  8.3000000000000E-01  1.0332782129830E+00  7.8058117480566E-01
85  8.4000000000000E-01  1.0033684652467E+00  8.2096597656955E-01
86  8.5000000000000E-01  9.7601014490783E-01  8.5333971214387E-01
87  8.6000000000000E-01  9.5155955425434E-01  8.7705469601815E-01
88  8.7000000000000E-01  9.3030666552546E-01  8.9161570699688E-01
89  8.8000000000000E-01  9.1246900867456E-01  8.9669223547912E-01
90  8.9000000000000E-01  8.9818684111749E-01  8.9212786522092E-01
91  9.0000000000000E-01  8.8751970416113E-01  8.7794657299177E-01
92  9.1000000000000E-01  8.8044444616359E-01  8.5435578409864E-01
93  9.2000000000000E-01  8.7685476610528E-01  8.2174607993633E-01
94  9.3000000000000E-01  8.7656230362029E-01  7.8068751449645E-01
95  9.4000000000000E-01  8.7929927316535E-01  7.3192255899444E-01
96  9.5000000000000E-01  8.8472261140763E-01  6.7635575632241E-01
97  9.6000000000000E-01  8.9241957862689E-01  6.1504022873589E-01
98  9.7000000000000E-01  9.0191472748616E-01  5.4916124186976E-01
99  9.8000000000000E-01  9.1267812644319E-01  4.8001708473149E-01
100  9.9000000000000E-01  9.2413470084834E-01  4.0899757766118E-01
101  1.0000000000000E+00  9.3567453287486E-01  3.3756056735352E-01
102  1.0100000000000E+00  9.4666394227972E-01  2.6720680899241E-01
103  1.0200000000000E+00  9.5645715395986E-01  1.9945366956767E-01
104  1.0300000000000E+00  9.6440834568976E-01  1.3580811280246E-01
105  1.0400000000000E+00  9.6988386054874E-01  7.7739444288728E-02
106  1.0500000000000E+00  9.7227436355333E-01  2.6652305027093E-02
107  1.0600000000000E+00  9.7100672103953E-01 -1.6139597693848E-02
108  1.0700000000000E+00  9.6555538440474E-01 -4.9438541268954E-02
109  1.0800000000000E+00  9.5545306692675E-01 -7.2186156785635E-02
110  1.0900000000000E+00  9.4030051337890E-01 -8.3484677773162E-02
111  1.1000000000000E+00  9.1977517690128E-01 -8.2615664081044E-02
112  1.1100000000000E+00  8.9363863583089E-01 -6.9055837594662E-02
113  1.1200000000000E+00  8.6174260454445E-01 -4.2489714566824E-02
114  1.1300000000000E+00  8.2403341660672E-01 -2.8187736796450E-03
115  1.1400000000000E+00  7.8055488497122E-01  4.9833041947822E-02
116  1.1500000000000E+00  7.3144947249871E-01  1.1511762704946E-01
117  1.1600000000000E+00  6.7695773574176E-01  1.9246489305734E-01
118  1.1700000000000E+00  6.1741603567718E-01  2.8108882757396E-01
119  1.1800000000000E+00  5.5325253987981E-01  3.7999737030147E-01
120  1.1900000000000E+00  4.8498157131918E-01  4.8800597339992E-01
121  1.2000000000000E+00  4.1319638872693E-01  6.0375464852613E-01
122  1.2100000000000E+00  3.3856051185508E-01  7.2572824025610E-01
123  1.2200000000000E+00  2.6179773153928E-01  8.5227960705328E-01
124  1.2300000000000E+00  1.8368096849389E-01  9.8165533817472E-01
125  1.2400000000000E+00  1.0502016618185E-01  1.1120235879280E+00
126  1.2500000000000E+00  2.6649421139511E-02  1.2415035692180E+00
127  1.2600000000000E+00 -5.0586431301268E-02  1.3681962165520E+00