Pr    ONCVPSP-4.0.1  r_core=   2.01067   1.60183   1.90528   1.60183
59.0000     13.0000      241206    zatom,zion,pspd
8      11   3     4   600     0    pspcod,pspxc,lmax,lloc,mmax,r2well
5.99000000  4.00000000  0.00000000    rchrg fchrg qchrg
2     2     2     2     0    nproj
1     1           extension_switch
0                         6.4640045330405E+00  7.7082896313725E-01
1  0.0000000000000E+00  1.1731576821106E-10 -3.2232876090443E-10
2  1.0000000000000E-02  3.1683430562834E-02 -4.0284307504713E-03
3  2.0000000000000E-02  6.3366762304707E-02 -8.0727191960888E-03
4  3.0000000000000E-02  9.5049652696309E-02 -1.2148253605730E-02
5  4.0000000000000E-02  1.2673127461179E-01 -1.6269490139627E-02
6  5.0000000000000E-02  1.5841008105077E-01 -2.0449503571845E-02
7  6.0000000000000E-02  1.9008357820076E-01 -2.4699557913804E-02
8  7.0000000000000E-02  2.2174810948103E-01 -2.9028703189931E-02
9  8.0000000000000E-02  2.5339865309164E-01 -3.3443404294217E-02
10  9.0000000000000E-02  2.8502863544712E-01 -3.7947207460147E-02
11  1.0000000000000E-01  3.1662976270395E-01 -4.2540449410793E-02
12  1.1000000000000E-01  3.4819187239748E-01 -4.7220013726040E-02
13  1.2000000000000E-01  3.7970280698799E-01 -5.1979138375643E-02
14  1.3000000000000E-01  4.1114831088053E-01 -5.6807277726959E-02
15  1.4000000000000E-01  4.4251195223030E-01 -6.1690021651788E-02
16  1.5000000000000E-01  4.7377507057870E-01 -6.6609073635587E-02
17  1.6000000000000E-01  5.0491675108573E-01 -7.1542289042544E-02
18  1.7000000000000E-01  5.3591382583693E-01 -7.6463773920070E-02
19  1.8000000000000E-01  5.6674090240912E-01 -8.1344043945412E-02
20  1.9000000000000E-01  5.9737041958258E-01 -8.6150242333368E-02
21  2.0000000000000E-01  6.2777272979088E-01 -9.0846414748064E-02
22  2.1000000000000E-01  6.5791620760668E-01 -9.5393838500761E-02
23  2.2000000000000E-01  6.8776738327527E-01 -9.9751402580291E-02
24  2.3000000000000E-01  7.1729110003063E-01 -1.0387603436062E-01
25  2.4000000000000E-01  7.4645069366440E-01 -1.0772316817022E-01
26  2.5000000000000E-01  7.7520819256907E-01 -1.1124725029849E-01
27  2.6000000000000E-01  8.0352453624577E-01 -1.1440227446256E-01
28  2.7000000000000E-01  8.3135981005648E-01 -1.1714234127132E-01
29  2.8000000000000E-01  8.5867349381341E-01 -1.1942223480785E-01
30  2.9000000000000E-01  8.8542472163560E-01 -1.2119800911297E-01
31  3.0000000000000E-01  9.1157255036783E-01 -1.2242757709623E-01
32  3.1000000000000E-01  9.3707623374974E-01 -1.2307129422973E-01
33  3.2000000000000E-01  9.6189549944641E-01 -1.2309252929853E-01
34  3.3000000000000E-01  9.8599082600542E-01 -1.2245821449132E-01
35  3.4000000000000E-01  1.0093237167910E+00 -1.2113936721626E-01
36  3.5000000000000E-01  1.0318569679632E+00 -1.1911157622195E-01
37  3.6000000000000E-01  1.0535549276197E+00 -1.1635544488956E-01
38  3.7000000000000E-01  1.0743837432985E+00 -1.1285698493774E-01
39  3.8000000000000E-01  1.0943115951522E+00 -1.0860795424537E-01
40  3.9000000000000E-01  1.1133089122468E+00 -1.0360613304249E-01
41  4.0000000000000E-01  1.1313485696088E+00 -9.7855533343906E-02
42  4.1000000000000E-01  1.1484060638413E+00 -9.1366537196028E-02
43  4.2000000000000E-01  1.1644596653556E+00 -8.4155960068554E-02
44  4.3000000000000E-01  1.1794905455081E+00 -7.6247036542424E-02
45  4.4000000000000E-01  1.1934828772009E+00 -6.7669326313875E-02
46  4.5000000000000E-01  1.2064239077887E+00 -5.8458539443722E-02
47  4.6000000000000E-01  1.2183040034330E+00 -4.8656280720929E-02
48  4.7000000000000E-01  1.2291166643571E+00 -3.8309713970256E-02
49  4.8000000000000E-01  1.2388585107739E+00 -2.7471148104272E-02
50  4.9000000000000E-01  1.2475292395820E+00 -1.6197547689974E-02
51  5.0000000000000E-01  1.2551315522559E+00 -4.5499717585720E-03
52  5.1000000000000E-01  1.2616710546723E+00  7.4070544781390E-03
53  5.2000000000000E-01  1.2671561299419E+00  1.9606229439796E-02
54  5.3000000000000E-01  1.2715977856163E+00  3.1978220096410E-02
55  5.4000000000000E-01  1.2750094769436E+00  4.4452454771483E-02
56  5.5000000000000E-01  1.2774069081203E+00  5.6957955870665E-02
57  5.6000000000000E-01  1.2788078137519E+00  6.9424203916477E-02
58  5.7000000000000E-01  1.2792317229716E+00  8.1782023692401E-02
59  5.8000000000000E-01  1.2786997088791E+00  9.3964482814614E-02
60  5.9000000000000E-01  1.2772341261476E+00  1.0590779266372E-01
61  6.0000000000000E-01  1.2748583398008E+00  1.1755220132829E-01
62  6.1000000000000E-01  1.2715964482862E+00  1.2884286804192E-01
63  6.2000000000000E-01  1.2674730040562E+00  1.3973070854065E-01
64  6.3000000000000E-01  1.2625127349252E+00  1.5017320082924E-01
65  6.4000000000000E-01  1.2567402694845E+00  1.6013514102624E-01
66  6.5000000000000E-01  1.2501798698397E+00  1.6958933925785E-01
67  6.6000000000000E-01  1.2428551748752E+00  1.7851724598945E-01
68  6.7000000000000E-01  1.2347889571588E+00  1.8690949971686E-01
69  6.8000000000000E-01  1.2260028964679E+00  1.9476638758600E-01
70  6.9000000000000E-01  1.2165173727549E+00  2.0209821126166E-01
71  7.0000000000000E-01  1.2063512811705E+00  2.0892555121874E-01
72  7.1000000000000E-01  1.1955218715328E+00  2.1527942357444E-01
73  7.2000000000000E-01  1.1840446143731E+00  2.2120132460890E-01
74  7.3000000000000E-01  1.1719330954006E+00  2.2674315922362E-01
75  7.4000000000000E-01  1.1591989399214E+00  2.3196705075253E-01
76  7.5000000000000E-01  1.1458517684167E+00  2.3694503075594E-01
77  7.6000000000000E-01  1.1318991841373E+00  2.4175860868172E-01
78  7.7000000000000E-01  1.1173467932153E+00  2.4649822255655E-01
79  7.8000000000000E-01  1.1021982574235E+00  2.5126257315981E-01
80  7.9000000000000E-01  1.0864553793405E+00  2.5615784541945E-01
81  8.0000000000000E-01  1.0701182193086E+00  2.6129682203802E-01
82  8.1000000000000E-01  1.0531852431980E+00  2.6679789559480E-01
83  8.2000000000000E-01  1.0356534996347E+00  2.7278398656189E-01
84  8.3000000000000E-01  1.0175188249959E+00  2.7938137580359E-01
85  8.4000000000000E-01  9.9877607414761E-01  2.8671846118826E-01
86  8.5000000000000E-01  9.7941937458562E-01  2.9492444891506E-01
87  8.6000000000000E-01  9.5944240135349E-01  3.0412799103476E-01
88  8.7000000000000E-01  9.3883866985166E-01  3.1445578141207E-01
89  8.8000000000000E-01  9.1760184342175E-01  3.2603112302793E-01
90  8.9000000000000E-01  8.9572605239495E-01  3.3897248004507E-01
91  9.0000000000000E-01  8.7320622113370E-01  3.5339202845241E-01
92  9.1000000000000E-01  8.5003839947432E-01  3.6939421935775E-01
93  9.2000000000000E-01  8.2622009489629E-01  3.8707436911019E-01
94  9.3000000000000E-01  8.0175060170229E-01  4.0651729040163E-01
95  9.4000000000000E-01  7.7663132349305E-01  4.2779597831987E-01
96  9.5000000000000E-01  7.5086608526151E-01  4.5097036500639E-01
97  9.6000000000000E-01  7.2446143151234E-01  4.7608615611134E-01
98  9.7000000000000E-01  6.9742690693355E-01  5.0317376164371E-01
99  9.8000000000000E-01  6.6977531630560E-01  5.3224733309004E-01
100  9.9000000000000E-01  6.4152296052819E-01  5.6330391783030E-01
101  1.0000000000000E+00  6.1268984587269E-01  5.9632274092365E-01
102  1.0100000000000E+00  5.8329986382617E-01  6.3126462328021E-01
103  1.0200000000000E+00  5.5338093917873E-01  6.6807154409034E-01
104  1.0300000000000E+00  5.2296514431336E-01  7.0666635416382E-01
105  1.0400000000000E+00  4.9208877798546E-01  7.4695264555165E-01
106  1.0500000000000E+00  4.6079240722125E-01  7.8881478149605E-01
107  1.0600000000000E+00  4.2912087131647E-01  8.3211808939945E-01
108  1.0700000000000E+00  3.9712324727509E-01  8.7670921813081E-01
109  1.0800000000000E+00  3.6485277638676E-01  9.2241665961671E-01
110  1.0900000000000E+00  3.3236675199691E-01  9.6905143331134E-01
111  1.1000000000000E+00  2.9972636887065E-01  1.0164079308133E+00
112  1.1100000000000E+00  2.6699653488590E-01  1.0642649166209E+00
113  1.1200000000000E+00  2.3424564610906E-01  1.1123866797939E+00
114  1.1300000000000E+00  2.0154532660319E-01  1.1605243301430E+00
115  1.1400000000000E+00  1.6897013459213E-01  1.2084172314940E+00
116  1.1500000000000E+00  1.3659723684964E-01  1.2557945635994E+00
117  1.1600000000000E+00  1.0450605339947E-01  1.3023770033806E+00
118  1.1700000000000E+00  7.2777874797339E-02  1.3478785154098E+00
119  1.1800000000000E+00  4.1495454419007E-02  1.3920082408588E+00
120  1.1900000000000E+00  1.0742578297770E-02  1.4344724735769E+00
121  1.2000000000000E+00 -1.9396384857783E-02  1.4749767114901E+00
122  1.2100000000000E+00 -4.8836950780550E-02  1.5132277711524E+00
123  1.2200000000000E+00 -7.7495001186073E-02  1.5489359530053E+00
124  1.2300000000000E+00 -1.0528727703139E-01  1.5818172447164E+00
125  1.2400000000000E+00 -1.3213188081259E-01  1.6115955498551E+00
126  1.2500000000000E+00 -1.5794878527077E-01  1.6380049291101E+00
127  1.2600000000000E+00 -1.8266034594040E-01  1.6607918412437E+00
128  1.2700000000000E+00 -2.0619181504912E-01  1.6797173709954E+00
129  1.2800000000000E+00 -2.2847185435713E-01  1.6945594311698E+00
130  1.2900000000000E+00 -2.4943304460109E-01  1.7051149261464E+00
131  1.3000000000000E+00 -2.6901238927456E-01  1.7112018640194E+00
132  1.3100000000000E+00 -2.8715181052590E-01  1.7126614044682E+00
133  1.3200000000000E+00 -3.0379863497759E-01  1.7093598292703E+00
134  1.3300000000000E+00 -3.1890606725886E-01  1.7011904220522E+00
135  1.3400000000000E+00 -3.3243364898693E-01  1.6880752434098E+00
136  1.3500000000000E+00 -3.4434770082170E-01  1.6699667868836E+00
137  1.3600000000000E+00 -3.5462174504498E-01  1.6468495004242E+00
138  1.3700000000000E+00 -3.6323690586755E-01  1.6187411568851E+00
139  1.3800000000000E+00 -3.7018228433532E-01  1.5856940557135E+00
140  1.3900000000000E+00 -3.7545530428022E-01  1.5477960363358E+00
141  1.4000000000000E+00 -3.7906202523085E-01  1.5051712817289E+00
142  1.4100000000000E+00 -3.8101741755391E-01  1.4579808882954E+00
143  1.4200000000000E+00 -3.8134559432401E-01  1.4064231753764E+00
144  1.4300000000000E+00 -3.8007999351519E-01  1.3507337045365E+00
145  1.4400000000000E+00 -3.7726350305327E-01  1.2911849750757E+00
146  1.4500000000000E+00 -3.7294852005707E-01  1.2280857580506E+00
147  1.4600000000000E+00 -3.6719693422438E-01  1.1617800264004E+00
148  1.4700000000000E+00 -3.6008002375521E-01  1.0926454334769E+00
149  1.4800000000000E+00 -3.5167825046652E-01  1.0210912864331E+00
150  1.4900000000000E+00 -3.4208093880595E-01  9.4755595440543E-01
151  1.5000000000000E+00 -3.3138582131728E-01  8.7250364425266E-01
152  1.5100000000000E+00 -3.1969843073239E-01  7.9642046871497E-01
153  1.5200000000000E+00 -3.0713131624889E-01  7.1980972320313E-01
154  1.5300000000000E+00 -2.9380305870403E-01  6.4318627801487E-01
155  1.5400000000000E+00 -2.7983705622130E-01  5.6706998243722E-01
156  1.5500000000000E+00 -2.6536004852645E-01  4.9197796605456E-01
157  1.5600000000000E+00 -2.5050034444647E-01  4.1841571044568E-01
158  1.5700000000000E+00 -2.3538571312572E-01  3.4686675134030E-01
159  1.5800000000000E+00 -2.2014089420687E-01  2.7778085135945E-01
160  1.5900000000000E+00 -2.0488467950824E-01  2.1156048069712E-01
161  1.6000000000000E+00 -1.8972655375164E-01  1.4854564989413E-01
162  1.6100000000000E+00 -1.7476285566870E-01  8.8997035667081E-02
163  1.6200000000000E+00 -1.6007808964085E-01  3.3109844344679E-02
164  1.6300000000000E+00 -1.4574995267265E-01 -1.8953010009189E-02
165  1.6400000000000E+00 -1.3185014890613E-01 -6.7054612567739E-02
166  1.6500000000000E+00 -1.1844390237691E-01 -1.1108572580055E-01
167  1.6600000000000E+00 -1.0558964939275E-01 -1.5096550046095E-01
168  1.6700000000000E+00 -9.3338771237812E-02 -1.8664207514437E-01
169  1.6800000000000E+00 -8.1735390948018E-02 -2.1809292465091E-01
170  1.6900000000000E+00 -7.0816235746160E-02 -2.4532495404607E-01
171  1.7000000000000E+00 -6.0610565910107E-02 -2.6837433822292E-01
172  1.7100000000000E+00 -5.1140170508308E-02 -2.8730610735209E-01
173  1.7200000000000E+00 -4.2419429822562E-02 -3.0221348084011E-01
174  1.7300000000000E+00 -3.4455443633815E-02 -3.1321695479882E-01
175  1.7400000000000E+00 -2.7248223899889E-02 -3.2046315041357E-01
176  1.7500000000000E+00 -2.0790949791944E-02 -3.2412343256474E-01
177  1.7600000000000E+00 -1.5070282403143E-02 -3.2439231049882E-01
178  1.7700000000000E+00 -1.0066735925576E-02 -3.2148563412995E-01
179  1.7800000000000E+00 -5.7551015072725E-03 -3.1563860169832E-01
180  1.7900000000000E+00 -2.1049195321418E-03 -3.0710359612901E-01
181  1.8000000000000E+00  9.1900440568182E-04 -2.9614786910808E-01
182  1.8100000000000E+00  3.3560450021186E-03 -2.8305109345847E-01
183  1.8200000000000E+00  5.2491697203117E-03 -2.6810280550523E-01
184  1.8300000000000E+00  6.6443240813112E-03 -2.5159976028402E-01
185  1.8400000000000E+00  7.5897958670548E-03 -2.3384322332746E-01
186  1.8500000000000E+00  8.1355645192095E-03 -2.1513622333775E-01
187  1.8600000000000E+00  8.3326421747150E-03 -1.9578079056142E-01
188  1.8700000000000E+00  8.2324128352351E-03 -1.7607520577872E-01
189  1.8800000000000E+00  7.8859776093774E-03 -1.5631128820403E-01
190  1.8900000000000E+00  7.3434968728831E-03 -1.3677171125698E-01
191  1.9000000000000E+00  6.6536065189375E-03 -1.1772752736196E-01
192  1.9100000000000E+00  5.8626934711159E-03 -9.9435451606259E-02
193  1.9200000000000E+00  5.0129307152938E-03 -8.2132345947136E-02
194  1.9300000000000E+00  4.1434210141045E-03 -6.6036755201379E-02
195  1.9400000000000E+00  3.2919873825295E-03 -5.1352119569158E-02
196  1.9500000000000E+00  2.4919289938988E-03 -3.8258826327765E-02
197  1.9600000000000E+00  1.7718424378266E-03 -2.6913060119260E-02
198  1.9700000000000E+00  1.1552242345907E-03 -1.7445288079491E-02
199  1.9800000000000E+00  6.6039144615761E-04 -9.9624080900903E-03
200  1.9900000000000E+00  2.9827794813528E-04 -4.5158830998006E-03
201  2.0000000000000E+00  8.0098341614777E-05 -1.2231224453976E-03
202  2.0100000000000E+00  1.7169969487529E-06 -2.6545278083064E-05
203  2.0200000000000E+00 -2.3388666866088E-06  3.6252744831176E-05
204  2.0300000000000E+00  1.3370514726270E-06 -2.0525346763839E-05
205  2.04 -0.  0.
206  2.05 -0. -0.
207  2.06  0.  0.
208  2.07  0.  0.
209  2.08  0.  0.
210  2.09  0.  0.
211  2.10  0.  0.
212  2.11  0.  0.
213  2.12  0.  0.
214  2.13  0.  0.
215  2.14  0.  0.
216  2.15  0.  0.
217  2.16  0.  0.
218  2.17  0.  0.
219  2.18  0.  0.
220  2.19  0.  0.
221  2.20  0.  0.
222  2.21  0.  0.
223  2.22  0.  0.
224  2.23  0.  0.
225  2.24  0.  0.
226  2.25  0.  0.
227  2.26  0.  0.
228  2.27  0.  0.
229  2.28  0.  0.
230  2.29  0.  0.
231  2.30  0.  0.
232  2.31  0.  0.
233  2.32  0.  0.
234  2.33  0.  0.
235  2.34  0.  0.
236  2.35  0.  0.
237  2.36  0.  0.
238  2.37  0.  0.
239  2.38  0.  0.
240  2.39  0.  0.
241  2.40  0.  0.
242  2.41  0.  0.
243  2.42  0.  0.
244  2.43  0.  0.
245  2.44  0.  0.
246  2.45  0.  0.
247  2.46  0.  0.
248  2.47  0.  0.
249  2.48  0.  0.
250  2.49  0.  0.
251  2.50  0.  0.
252  2.51  0.  0.
253  2.52  0.  0.
254  2.53  0.  0.
255  2.54  0.  0.
256  2.55  0.  0.
257  2.56  0.  0.
258  2.57  0.  0.
259  2.58  0.  0.
260  2.59  0.  0.
261  2.60  0.  0.
262  2.61  0.  0.
263  2.62  0.  0.
264  2.63  0.  0.
265  2.64  0.  0.
266  2.65  0.  0.
267  2.66  0.  0.
268  2.67  0.  0.
269  2.68  0.  0.
270  2.69  0.  0.
271  2.70  0.  0.
272  2.71  0.  0.
273  2.72  0.  0.
274  2.73  0.  0.
275  2.74  0.  0.
276  2.75  0.  0.
277  2.76  0.  0.
278  2.77  0.  0.
279  2.78  0.  0.
280  2.79  0.  0.
281  2.80  0.  0.
282  2.81  0.  0.
283  2.82  0.  0.
284  2.83  0.  0.
285  2.84  0.  0.
286  2.85  0.  0.
287  2.86  0.  0.
288  2.87  0.  0.
289  2.88  0.  0.
290  2.89  0.  0.
291  2.90  0.  0.
292  2.91  0.  0.
293  2.92  0.  0.
294  2.93  0.  0.
295  2.94  0.  0.
296  2.95  0.  0.
297  2.96  0.  0.
298  2.97  0.  0.
299  2.98  0.  0.
300  2.99  0.  0.
301  3.00  0.  0.
302  3.01  0.  0.
303  3.02  0.  0.
304  3.03  0.  0.
305  3.04  0.  0.
306  3.05  0.  0.
307  3.06  0.  0.
308  3.07  0.  0.
309  3.08  0.  0.
310  3.09  0.  0.
311  3.10  0.  0.
312  3.11  0.  0.
313  3.12  0.  0.
314  3.13  0.  0.
315  3.14  0.  0.
316  3.15  0.  0.
317  3.16  0.  0.
318  3.17  0.  0.
319  3.18  0.  0.
320  3.19  0.  0.
321  3.20  0.  0.
322  3.21  0.  0.
323  3.22  0.  0.
324  3.23  0.  0.
325  3.24  0.  0.
326  3.25  0.  0.
327  3.26  0.  0.
328  3.27  0.  0.
329  3.28  0.  0.
330  3.29  0.  0.
331  3.30  0.  0.
332  3.31  0.  0.
333  3.32  0.  0.
334  3.33  0.  0.
335  3.34  0.  0.
336  3.35  0.  0.
337  3.36  0.  0.
338  3.37  0.  0.
339  3.38  0.  0.
340  3.39  0.  0.
341  3.40  0.  0.
342  3.41  0.  0.
343  3.42  0.  0.
344  3.43  0.  0.
345  3.44  0.  0.
346  3.45  0.  0.
347  3.46  0.  0.
348  3.47  0.  0.
349  3.48  0.  0.
350  3.49  0.  0.
351  3.50  0.  0.
352  3.51  0.  0.
353  3.52  0.  0.
354  3.53  0.  0.
355  3.54  0.  0.
356  3.55  0.  0.
357  3.56  0.  0.
358  3.57  0.  0.
359  3.58  0.  0.
360  3.59  0.  0.
361  3.60  0.  0.
362  3.61  0.  0.
363  3.62  0.  0.
364  3.63  0.  0.
365  3.64  0.  0.
366  3.65  0.  0.
367  3.66  0.  0.
368  3.67  0.  0.
369  3.68  0.  0.
370  3.69  0.  0.
371  3.70  0.  0.
372  3.71  0.  0.
373  3.72  0.  0.
374  3.73  0.  0.
375  3.74  0.  0.
376  3.75  0.  0.
377  3.76  0.  0.
378  3.77  0.  0.
379  3.78  0.  0.
380  3.79  0.  0.
381  3.80  0.  0.
382  3.81  0.  0.
383  3.82  0.  0.
384  3.83  0.  0.
385  3.84  0.  0.
386  3.85  0.  0.
387  3.86  0.  0.
388  3.87  0.  0.
389  3.88  0.  0.
390  3.89  0.  0.
391  3.90  0.  0.
392  3.91  0.  0.
393  3.92  0.  0.
394  3.93  0.  0.
395  3.94  0.  0.
396  3.95  0.  0.
397  3.96  0.  0.
398  3.97  0.  0.
399  3.98  0.  0.
400  3.99  0.  0.
401  4.00  0.  0.
402  4.01  0.  0.
403  4.02  0.  0.
404  4.03  0.  0.
405  4.04  0.  0.
406  4.05  0.  0.
407  4.06  0.  0.
408  4.07  0.  0.
409  4.08  0.  0.
410  4.09  0.  0.
411  4.10  0.  0.
412  4.11  0.  0.
413  4.12  0.  0.
414  4.13  0.  0.
415  4.14  0.  0.
416  4.15  0.  0.
417  4.16  0.  0.
418  4.17  0.  0.
419  4.18  0.  0.
420  4.19  0.  0.
421  4.20  0.  0.
422  4.21  0.  0.
423  4.22  0.  0.
424  4.23  0.  0.
425  4.24  0.  0.
426  4.25  0.  0.
427  4.26  0.  0.
428  4.27  0.  0.
429  4.28  0.  0.
430  4.29  0.  0.
431  4.30  0.  0.
432  4.31  0.  0.
433  4.32  0.  0.
434  4.33  0.  0.
435  4.34  0.  0.
436  4.35  0.  0.
437  4.36  0.  0.
438  4.37  0.  0.
439  4.38  0.  0.
440  4.39  0.  0.
441  4.40  0.  0.
442  4.41  0.  0.
443  4.42  0.  0.
444  4.43  0.  0.
445  4.44  0.  0.
446  4.45  0.  0.
447  4.46  0.  0.
448  4.47  0.  0.
449  4.48  0.  0.
450  4.49  0.  0.
451  4.50  0.  0.
452  4.51  0.  0.
453  4.52  0.  0.
454  4.53  0.  0.
455  4.54  0.  0.
456  4.55  0.  0.
457  4.56  0.  0.
458  4.57  0.  0.
459  4.58  0.  0.
460  4.59  0.  0.
461  4.60  0.  0.
462  4.61  0.  0.
463  4.62  0.  0.
464  4.63  0.  0.
465  4.64  0.  0.
466  4.65  0.  0.
467  4.66  0.  0.
468  4.67  0.  0.
469  4.68  0.  0.
470  4.69  0.  0.
471  4.70  0.  0.
472  4.71  0.  0.
473  4.72  0.  0.
474  4.73  0.  0.
475  4.74  0.  0.
476  4.75  0.  0.
477  4.76  0.  0.
478  4.77  0.  0.
479  4.78  0.  0.
480  4.79  0.  0.
481  4.80  0.  0.
482  4.81  0.  0.
483  4.82  0.  0.
484  4.83  0.  0.
485  4.84  0.  0.
486  4.85  0.  0.
487  4.86  0.  0.
488  4.87  0.  0.
489  4.88  0.  0.
490  4.89  0.  0.
491  4.90  0.  0.
492  4.91  0.  0.
493  4.92  0.  0.
494  4.93  0.  0.
495  4.94  0.  0.
496  4.95  0.  0.
497  4.96  0.  0.
498  4.97  0.  0.
499  4.98  0.  0.
500  4.99  0.  0.
501  5.00  0.  0.
502  5.01  0.  0.
503  5.02  0.  0.
504  5.03  0.  0.
505  5.04  0.  0.
506  5.05  0.  0.
507  5.06  0.  0.
508  5.07  0.  0.
509  5.08  0.  0.
510  5.09  0.  0.
511  5.10  0.  0.
512  5.11  0.  0.
513  5.12  0.  0.
514  5.13  0.  0.
515  5.14  0.  0.
516  5.15  0.  0.
517  5.16  0.  0.
518  5.17  0.  0.
519  5.18  0.  0.
520  5.19  0.  0.
521  5.20  0.  0.
522  5.21  0.  0.
523  5.22  0.  0.
524  5.23  0.  0.
525  5.24  0.  0.
526  5.25  0.  0.
527  5.26  0.  0.
528  5.27  0.  0.
529  5.28  0.  0.
530  5.29  0.  0.
531  5.30  0.  0.
532  5.31  0.  0.
533  5.32  0.  0.
534  5.33  0.  0.
535  5.34  0.  0.
536  5.35  0.  0.
537  5.36  0.  0.
538  5.37  0.  0.
539  5.38  0.  0.
540  5.39  0.  0.
541  5.40  0.  0.
542  5.41  0.  0.
543  5.42  0.  0.
544  5.43  0.  0.
545  5.44  0.  0.
546  5.45  0.  0.
547  5.46  0.  0.
548  5.47  0.  0.
549  5.48  0.  0.
550  5.49  0.  0.
551  5.50  0.  0.
552  5.51  0.  0.
553  5.52  0.  0.
554  5.53  0.  0.
555  5.54  0.  0.
556  5.55  0.  0.
557  5.56  0.  0.
558  5.57  0.  0.
559  5.58  0.  0.
560  5.59  0.  0.
561  5.60  0.  0.
562  5.61  0.  0.
563  5.62  0.  0.
564  5.63  0.  0.
565  5.64  0.  0.
566  5.65  0.  0.
567  5.66  0.  0.
568  5.67  0.  0.
569  5.68  0.  0.
570  5.69  0.  0.
571  5.70  0.  0.
572  5.71  0.  0.
573  5.72  0.  0.
574  5.73  0.  0.
575  5.74  0.  0.
576  5.75  0.  0.
577  5.76  0.  0.
578  5.77  0.  0.
579  5.78  0.  0.
580  5.79  0.  0.
581  5.80  0.  0.
582  5.81  0.  0.
583  5.82  0.  0.
584  5.83  0.  0.
585  5.84  0.  0.
586  5.85  0.  0.
587  5.86  0.  0.
588  5.87  0.  0.
589  5.88  0.  0.
590  5.89  0.  0.
591  5.90  0.  0.
592  5.91  0.  0.
593  5.92  0.  0.
594  5.93  0.  0.
595  5.94  0.  0.
596  5.95  0.  0.
597  5.96  0.  0.
598  5.97  0.  0.
599  5.98  0.  0.
600  5.99  0.  0.
1                         4.7091626254407E+00  1.3914963838708E+00
1  0.0000000000000E+00  1.8968664292074E-08 -4.2773315250821E-08
2  1.0000000000000E-02  1.4680028474135E-03 -1.6336985150567E-03
3  2.0000000000000E-02  5.8460952710309E-03 -6.4794836543159E-03
4  3.0000000000000E-02  1.3057077767269E-02 -1.4372657575952E-02
5  4.0000000000000E-02  2.2974102788958E-02 -2.5042809839916E-02
6  5.0000000000000E-02  3.5423363151082E-02 -3.8119858337281E-02
7  6.0000000000000E-02  5.0187778527688E-02 -5.3142332350910E-02
8  7.0000000000000E-02  6.7011604605478E-02 -6.9567727648244E-02
9  8.0000000000000E-02  8.5605870490938E-02 -8.6784720733669E-02
10  9.0000000000000E-02  1.0565453286833E-01 -1.0412699082918E-01
11  1.0000000000000E-01  1.2682122051623E-01 -1.2088836457592E-01
12  1.1000000000000E-01  1.4875643040823E-01 -1.3633897052721E-01
13  1.2000000000000E-01  1.7110502699845E-01 -1.4974206879848E-01
14  1.3000000000000E-01  1.9351388962078E-01 -1.6037120619238E-01
15  1.4000000000000E-01  2.1563954935077E-01 -1.6752733904307E-01
16  1.5000000000000E-01  2.3715565627004E-01 -1.7055556509703E-01
17  1.6000000000000E-01  2.5776012085218E-01 -1.6886111201110E-01
18  1.7000000000000E-01  2.7718177911048E-01 -1.6192424339695E-01
19  1.8000000000000E-01  2.9518644010669E-01 -1.4931376353730E-01
20  1.9000000000000E-01  3.1158218624863E-01 -1.3069882856755E-01
21  2.0000000000000E-01  3.2622381128178E-01 -1.0585880455616E-01
22  2.1000000000000E-01  3.3901629773011E-01 -7.4690950907560E-02
23  2.2000000000000E-01  3.4991725444293E-01 -3.7215750127174E-02
24  2.3000000000000E-01  3.5893825549314E-01  6.4202485909592E-03
25  2.4000000000000E-01  3.6614504355119E-01  5.5944155163922E-02
26  2.5000000000000E-01  3.7165658360241E-01  1.1095906573627E-01
27  2.6000000000000E-01  3.7564297604046E-01  1.7094897081067E-01
28  2.7000000000000E-01  3.7832226130224E-01  2.3528617193041E-01
29  2.8000000000000E-01  3.7995617085451E-01  3.0324108339095E-01
30  2.9000000000000E-01  3.8084490105037E-01  3.7399424650532E-01
31  3.0000000000000E-01  3.8132100671376E-01  4.4665033808227E-01
32  3.1000000000000E-01  3.8174252987184E-01  5.2025391291337E-01
33  3.2000000000000E-01  3.8248549546430E-01  5.9380658305652E-01
34  3.3000000000000E-01  3.8393591977701E-01  6.6628530530548E-01
35  3.4000000000000E-01  3.8648148848618E-01  7.3666142310239E-01
36  3.5000000000000E-01  3.9050306931961E-01  8.0392009081890E-01
37  3.6000000000000E-01  3.9636622926234E-01  8.6707969721010E-01
38  3.7000000000000E-01  4.0441292783635E-01  9.2521090120216E-01
39  3.8000000000000E-01  4.1495355620962E-01  9.7745489713884E-01
40  3.9000000000000E-01  4.2825948674964E-01  1.0230405381617E+00
41  4.0000000000000E-01  4.4455628920200E-01  1.0612999653682E+00
42  4.1000000000000E-01  4.6401775808686E-01  1.0916824164673E+00
43  4.2000000000000E-01  4.8676088136340E-01  1.1137659203829E+00
44  4.3000000000000E-01  5.1284186317579E-01  1.1272666230547E+00
45  4.4000000000000E-01  5.4225329387576E-01  1.1320455338461E+00
46  4.5000000000000E-01  5.7492253888054E-01  1.1281125306798E+00
47  4.6000000000000E-01  6.1071139467236E-01  1.1156275143604E+00
48  4.7000000000000E-01  6.4941703581844E-01  1.0948986575340E+00
49  4.8000000000000E-01  6.9077425175023E-01  1.0663777503219E+00
50  4.9000000000000E-01  7.3445894667300E-01  1.0306527017620E+00
51  5.0000000000000E-01  7.8009285087078E-01  9.8843731269440E-01
52  5.1000000000000E-01  8.2724936731857E-01  9.4055849052764E-01
53  5.2000000000000E-01  8.7546045439269E-01  8.8794112834271E-01
54  5.3000000000000E-01  9.2422442404269E-01  8.3159091899170E-01
55  5.4000000000000E-01  9.7301451548429E-01  7.7257541825867E-01
56  5.5000000000000E-01  1.0212880876892E+00  7.1200370888021E-01
57  5.6000000000000E-01  1.0684962600320E+00  6.5100504848801E-01
58  5.7000000000000E-01  1.1140938197052E+00  5.9070690866449E-01
59  5.8000000000000E-01  1.1575492071694E+00  5.3221282875902E-01
60  5.9000000000000E-01  1.1983543871442E+00  4.7658051650089E-01
61  6.0000000000000E-01  1.2360344125693E+00  4.2480062752397E-01
62  6.1000000000000E-01  1.2701564926238E+00  3.7777664760200E-01
63  6.2000000000000E-01  1.3003383832379E+00  3.3630628475941E-01
64  6.3000000000000E-01  1.3262559294710E+00  3.0106475370680E-01
65  6.4000000000000E-01  1.3476496034891E+00  2.7259030264988E-01
66  6.5000000000000E-01  1.3643298993971E+00  2.5127229298058E-01
67  6.6000000000000E-01  1.3761814665865E+00  2.3734209637232E-01
68  6.7000000000000E-01  1.3831658861548E+00  2.3086702218466E-01
69  6.8000000000000E-01  1.3853230199503E+00  2.3174743177716E-01
70  6.9000000000000E-01  1.3827708884184E+00  2.3971713637213E-01
71  7.0000000000000E-01  1.3757040611824E+00  2.5434711260772E-01
72  7.1000000000000E-01  1.3643905726701E+00  2.7505250606584E-01
73  7.2000000000000E-01  1.3491674035419E+00  3.0110282905538E-01
74  7.3000000000000E-01  1.3304345966625E+00  3.3163519600918E-01
75  7.4000000000000E-01  1.3086481033210E+00  3.6567037923929E-01
76  7.5000000000000E-01  1.2843114808439E+00  4.0213141066679E-01
77  7.6000000000000E-01  1.2579665861297E+00  4.3986440264430E-01
78  7.7000000000000E-01  1.2301834305230E+00  4.7766121416979E-01
79  7.8000000000000E-01  1.2015493793875E+00  5.1428354860638E-01
80  7.9000000000000E-01  1.1726578943851E+00  5.4848803631613E-01
81  8.0000000000000E-01  1.1440970274865E+00  5.7905183108770E-01
82  8.1000000000000E-01  1.1164378828948E+00  6.0479823344224E-01
83  8.2000000000000E-01  1.0902232661797E+00  6.2462184723112E-01
84  8.3000000000000E-01  1.0659567388914E+00  6.3751277861349E-01
85  8.4000000000000E-01  1.0440922917405E+00  6.4257939856443E-01
86  8.5000000000000E-01  1.0250248401344E+00  6.3906921138254E-01
87  8.6000000000000E-01  1.0090817326116E+00  6.2638740192277E-01
88  8.7000000000000E-01  9.9651544570654E-01  6.0411267299142E-01
89  8.8000000000000E-01  9.8749761830789E-01  5.7201003085066E-01
90  8.9000000000000E-01  9.8211455500256E-01  5.3004023028284E-01
91  9.0000000000000E-01  9.8036430163196E-01  4.7836565020977E-01
92  9.1000000000000E-01  9.8215536781471E-01  4.1735243538034E-01
93  9.2000000000000E-01  9.8730714102114E-01  3.4756880795005E-01
94  9.3000000000000E-01  9.9555200548074E-01  2.6977952362411E-01
95  9.4000000000000E-01  1.0065391473459E+00  1.8493651910101E-01
96  9.5000000000000E-01  1.0198399957205E+00  9.4165869489291E-02
97  9.6000000000000E-01  1.0349552179950E+00 -1.2487551935215E-03
98  9.7000000000000E-01  1.0513231580037E+00 -9.9885877724114E-02
99  9.8000000000000E-01  1.0683295774028E+00 -2.0020892538614E-01
100  9.9000000000000E-01  1.0853185349178E+00 -3.0059148739322E-01
101  1.0000000000000E+00  1.1016042152198E+00 -3.9934468811749E-01
102  1.0100000000000E+00  1.1164834996143E+00 -4.9474620212768E-01
103  1.0200000000000E+00  1.1292490548597E+00 -5.8507040135722E-01
104  1.0300000000000E+00  1.1392027046053E+00 -6.6861909819656E-01
105  1.0400000000000E+00  1.1456688403871E+00 -7.4375233146433E-01
106  1.0500000000000E+00  1.1480076260322E+00 -8.0891863547708E-01
107  1.0600000000000E+00  1.1456277507731E+00 -8.6268423599096E-01
108  1.0700000000000E+00  1.1379984923669E+00 -9.0376063061676E-01
109  1.0800000000000E+00  1.1246608619942E+00 -9.3103003530046E-01
110  1.0900000000000E+00  1.1052376174309E+00 -9.4356821205076E-01
111  1.1000000000000E+00  1.0794419498411E+00 -9.4066423603986E-01
112  1.1100000000000E+00  1.0470846719988E+00 -9.2183681131534E-01
113  1.1200000000000E+00  1.0080797616457E+00 -8.8684680326005E-01
114  1.1300000000000E+00  9.6244814233621E-01 -8.3570572104612E-01
115  1.1400000000000E+00  9.1031961521215E-01 -7.6867995398512E-01
116  1.1500000000000E+00  8.5193288791388E-01 -6.8629064012251E-01
117  1.1600000000000E+00  7.8763368089410E-01 -5.8930912280874E-01
118  1.1700000000000E+00  7.1787092587462E-01 -4.7874802930925E-01
119  1.1800000000000E+00  6.4319110577539E-01 -3.5584808411852E-01
120  1.1900000000000E+00  5.6423081907196E-01 -2.2206084607653E-01
121  1.2000000000000E+00  4.8170768413742E-01 -7.9027632513957E-02
122  1.2100000000000E+00  3.9640972947258E-01  7.1445037305573E-02
123  1.2200000000000E+00  3.0918344385929E-01  2.2741308313037E-01
124  1.2300000000000E+00  2.2092068541363E-01  3.8682513589071E-01
125  1.2400000000000E+00  1.3254467002551E-01  5.4755493883025E-01
126  1.2500000000000E+00  4.4995277372387E-02  7.0743533483033E-01
127  1.2600000000000E+00 -4.0786073925545E-02  8.6429326641119E-01
128  1.2700000000000E+00 -1.2387172141467E-01  1.0159851939734E+00
129  1.2800000000000E+00 -2.0336295924957E-01  1.1604323275049E+00
130  1.2900000000000E+00 -2.7840487937837E-01  1.2956550672172E+00
131  1.3000000000000E+00 -3.4820059394067E-01  1.4198060594475E+00
132  1.3100000000000E+00 -4.1202458905476E-01  1.5312012955429E+00
133  1.3200000000000E+00 -4.6923497429469E-01  1.6283487127871E+00