Pr    ONCVPSP-4.0.1  r_core=   2.01067   1.60183   1.90528   1.60183
59.0000     13.0000      241101    zatom,zion,pspd
8      11   3     4   600     0    pspcod,pspxc,lmax,lloc,mmax,r2well
5.99000000  4.00000000  0.00000000    rchrg fchrg qchrg
2     2     2     2     0    nproj
1     1           extension_switch
0                         6.4846495875118E+00  7.8041542938306E-01
1  0.0000000000000E+00  1.2115008996005E-10 -3.3310481109550E-10
2  1.0000000000000E-02  3.1615511129028E-02 -3.6931649686164E-03
3  2.0000000000000E-02  6.3231852461123E-02 -7.4052735348267E-03
4  3.0000000000000E-02  9.4849600533855E-02 -1.1154769615940E-02
5  4.0000000000000E-02  1.2646882747424E-01 -1.4959104803778E-02
6  5.0000000000000E-02  1.5808885606349E-01 -1.8834259704000E-02
7  6.0000000000000E-02  1.8970802343909E-01 -2.2794286039072E-02
8  7.0000000000000E-02  2.2132345616977E-01 -2.6850876040853E-02
9  8.0000000000000E-02  2.5293085931768E-01 -3.1012965325632E-02
10  9.0000000000000E-02  2.8452432195316E-01 -3.5286375034912E-02
11  1.0000000000000E-01  3.1609614141170E-01 -3.9673498544008E-02
12  1.1000000000000E-01  3.4763666838258E-01 -4.4173037492688E-02
13  1.2000000000000E-01  3.7913417469616E-01 -4.8779791284027E-02
14  1.3000000000000E-01  4.1057474543319E-01 -5.3484503535881E-02
15  1.4000000000000E-01  4.4194219671922E-01 -5.8273768261443E-02
16  1.5000000000000E-01  4.7321802029087E-01 -6.3129997809213E-02
17  1.6000000000000E-01  5.0438135563258E-01 -6.8031453816663E-02
18  1.7000000000000E-01  5.3540899018502E-01 -7.2952341634735E-02
19  1.8000000000000E-01  5.6627538782263E-01 -7.7862967871363E-02
20  1.9000000000000E-01  5.9695274549118E-01 -8.2729959890195E-02
21  2.0000000000000E-01  6.2741107758950E-01 -8.7516545295672E-02
22  2.1000000000000E-01  6.5761832737691E-01 -9.2182888646278E-02
23  2.2000000000000E-01  6.8754050439102E-01 -9.6686481873803E-02
24  2.3000000000000E-01  7.1714184657428E-01 -1.0098258415670E-01
25  2.4000000000000E-01  7.4638500553362E-01 -1.0502470630899E-01
26  2.5000000000000E-01  7.7523125309958E-01 -1.0876513411054E-01
27  2.6000000000000E-01  8.0364070711211E-01 -1.1215548442876E-01
28  2.7000000000000E-01  8.3157257414146E-01 -1.1514728747178E-01
29  2.8000000000000E-01  8.5898540665882E-01 -1.1769258807694E-01
30  2.9000000000000E-01  8.8583737200185E-01 -1.1974455858058E-01
31  3.0000000000000E-01  9.1208653033970E-01 -1.2125811554218E-01
32  3.1000000000000E-01  9.3769111873057E-01 -1.2219053241039E-01
33  3.2000000000000E-01  9.6260983828386E-01 -1.2250204012495E-01
34  3.3000000000000E-01  9.8680214139018E-01 -1.2215640764912E-01
35  3.4000000000000E-01  1.0102285159663E+00 -1.2112149452239E-01
36  3.5000000000000E-01  1.0328507636782E+00 -1.1936976771415E-01
37  3.6000000000000E-01  1.0546322691562E+00 -1.1687877534443E-01
38  3.7000000000000E-01  1.0755382572963E+00 -1.1363157021614E-01
39  3.8000000000000E-01  1.0955360358591E+00 -1.0961707657082E-01
40  3.9000000000000E-01  1.1145952207207E+00 -1.0483039403412E-01
41  4.0000000000000E-01  1.1326879413064E+00 -9.9273033351475E-02
42  4.1000000000000E-01  1.1497890239418E+00 -9.2953079224167E-02
43  4.2000000000000E-01  1.1658761510830E+00 -8.5885276333738E-02
44  4.3000000000000E-01  1.1809299946445E+00 -7.8091035479985E-02
45  4.4000000000000E-01  1.1949343219148E+00 -6.9598357648276E-02
46  4.5000000000000E-01  1.2078760728438E+00 -6.0441674753443E-02
47  4.6000000000000E-01  1.2197454077960E+00 -5.0661606772826E-02
48  4.7000000000000E-01  1.2305357251822E+00 -4.0304635967993E-02
49  4.8000000000000E-01  1.2402436487134E+00 -2.9422699893573E-02
50  4.9000000000000E-01  1.2488689843560E+00 -1.8072705890553E-02
51  5.0000000000000E-01  1.2564146474028E+00 -6.3159707495661E-03
52  5.1000000000000E-01  1.2628865604106E+00  5.7824098043413E-03
53  5.2000000000000E-01  1.2682935230836E+00  1.8154256222118E-02
54  5.3000000000000E-01  1.2726470555031E+00  3.0729058365070E-02
55  5.4000000000000E-01  1.2759612164083E+00  4.3434779560712E-02
56  5.5000000000000E-01  1.2782523985279E+00  5.6198703411575E-02
57  5.6000000000000E-01  1.2795391032291E+00  6.8948314598865E-02
58  5.7000000000000E-01  1.2798416970003E+00  8.1612204318113E-02
59  5.8000000000000E-01  1.2791821525073E+00  9.4120990472915E-02
60  5.9000000000000E-01  1.2775837771530E+00  1.0640824234257E-01
61  6.0000000000000E-01  1.2750709322348E+00  1.1841139913693E-01
62  6.1000000000000E-01  1.2716687459234E+00  1.3007267166216E-01
63  6.2000000000000E-01  1.2674028233792E+00  1.4133991624843E-01
64  6.3000000000000E-01  1.2622989573806E+00  1.5216747013853E-01
65  6.4000000000000E-01  1.2563828428601E+00  1.6251693770574E-01
66  6.5000000000000E-01  1.2496797987237E+00  1.7235791716156E-01
67  6.6000000000000E-01  1.2422145002750E+00  1.8166865782659E-01
68  6.7000000000000E-01  1.2340107254717E+00  1.9043663857030E-01
69  6.8000000000000E-01  1.2250911181081E+00  1.9865905867245E-01
70  6.9000000000000E-01  1.2154769708540E+00  2.0634323311580E-01
71  7.0000000000000E-01  1.2051880308735E+00  2.1350688518087E-01
72  7.1000000000000E-01  1.1942423305168E+00  2.2017833016911E-01
73  7.2000000000000E-01  1.1826560453098E+00  2.2639654512468E-01
74  7.3000000000000E-01  1.1704433811742E+00  2.3221112054422E-01
75  7.4000000000000E-01  1.1576164924942E+00  2.3768209124947E-01
76  7.5000000000000E-01  1.1441854323075E+00  2.4287964483617E-01
77  7.6000000000000E-01  1.1301581355387E+00  2.4788370739187E-01
78  7.7000000000000E-01  1.1155404358298E+00  2.5278340748130E-01
79  7.8000000000000E-01  1.1003361161366E+00  2.5767642071730E-01
80  7.9000000000000E-01  1.0845469928793E+00  2.6266819855265E-01
81  8.0000000000000E-01  1.0681730330502E+00  2.6787108622981E-01
82  8.1000000000000E-01  1.0512125032973E+00  2.7340333609586E-01
83  8.2000000000000E-01  1.0336621496308E+00  2.7938802371616E-01
84  8.3000000000000E-01  1.0155174060379E+00  2.8595187538557E-01
85  8.4000000000000E-01  9.9677262994541E-01  2.9322401672926E-01
86  8.5000000000000E-01  9.7742136214637E-01  3.0133465309266E-01
87  8.6000000000000E-01  9.5745660850783E-01  3.1041369332782E-01
88  8.7000000000000E-01  9.3687114050412E-01  3.2058932938427E-01
89  8.8000000000000E-01  9.1565781138163E-01  3.3198658479157E-01
90  8.9000000000000E-01  8.9380988455475E-01  3.4472584567428E-01
91  9.0000000000000E-01  8.7132137066452E-01  3.5892138835639E-01
92  9.1000000000000E-01  8.4818736960218E-01  3.7467991788963E-01
93  9.2000000000000E-01  8.2440441371055E-01  3.9209913197122E-01
94  9.3000000000000E-01  7.9997080832969E-01  4.1126632470137E-01
95  9.4000000000000E-01  7.7488696584817E-01  4.3225704446733E-01
96  9.5000000000000E-01  7.4915572945899E-01  4.5513381993065E-01
97  9.6000000000000E-01  7.2278268289895E-01  4.7994496764076E-01
98  9.7000000000000E-01  6.9577644257032E-01  5.0672349420494E-01
99  9.8000000000000E-01  6.6814892860381E-01  5.3548610521929E-01
100  9.9000000000000E-01  6.3991561161851E-01  5.6623233231504E-01
101  1.0000000000000E+00  6.1109573216613E-01  5.9894378870988E-01
102  1.0100000000000E+00  5.8171249011031E-01  6.3358356258432E-01
103  1.0200000000000E+00  5.5179320148309E-01  6.7009575644260E-01
104  1.0300000000000E+00  5.2136942067660E-01  7.0840517937818E-01
105  1.0400000000000E+00  4.9047702616393E-01  7.4841719786150E-01
106  1.0500000000000E+00  4.5915626829545E-01  7.9001774931432E-01
107  1.0600000000000E+00  4.2745177807962E-01  8.3307352135104E-01
108  1.0700000000000E+00  3.9541253622706E-01  8.7743229816408E-01
109  1.0800000000000E+00  3.6309180210851E-01  9.2292347412497E-01
110  1.0900000000000E+00  3.3054700264428E-01  9.6935873328575E-01
111  1.1000000000000E+00  2.9783958150511E-01  1.0165328921000E+00
112  1.1100000000000E+00  2.6503480935050E-01  1.0642249013710E+00
113  1.1200000000000E+00  2.3220155616376E-01  1.1121990021714E+00
114  1.1300000000000E+00  1.9941202705292E-01  1.1602060292920E+00
115  1.1400000000000E+00  1.6674146317409E-01  1.2079848546684E+00
116  1.1500000000000E+00  1.3426780969330E-01  1.2552639622156E+00
117  1.1600000000000E+00  1.0207135293263E-01  1.3017631445839E+00
118  1.1700000000000E+00  7.0234329044538E-02  1.3471953115285E+00
119  1.1800000000000E+00  3.8840506723388E-02  1.3912683988807E+00
120  1.1900000000000E+00  7.9747465937434E-03  1.4336873665053E+00
121  1.2000000000000E+00 -2.2277459987020E-02  1.4741562731331E+00
122  1.2100000000000E+00 -5.1830469910304E-02  1.5123804155715E+00
123  1.2200000000000E+00 -8.0598982247348E-02  1.5480685194966E+00
124  1.2300000000000E+00 -1.0849854429106E-01  1.5809349688308E+00
125  1.2400000000000E+00 -1.3544606689157E-01  1.6107020605787E+00
126  1.2500000000000E+00 -1.6136034631257E-01  1.6371022719342E+00
127  1.2600000000000E+00 -1.8616258989595E-01  1.6598805264554E+00
128  1.2700000000000E+00 -2.0977694289570E-01  1.6787964461203E+00
129  1.2800000000000E+00 -2.3213101392026E-01  1.6936265761054E+00
130  1.2900000000000E+00 -2.5315639650018E-01  1.7041665691420E+00
131  1.3000000000000E+00 -2.7278918436742E-01  1.7102333162865E+00
132  1.3100000000000E+00 -2.9097047808534E-01  1.7116670108636E+00
133  1.3200000000000E+00 -3.0764688069677E-01  1.7083331321708E+00
134  1.3300000000000E+00 -3.2277098005242E-01  1.7001243352557E+00
135  1.3400000000000E+00 -3.3630181543375E-01  1.6869622326497E+00
136  1.3500000000000E+00 -3.4820532598370E-01  1.6687990533450E+00
137  1.3600000000000E+00 -3.5845477829698E-01  1.6456191635018E+00
138  1.3700000000000E+00 -3.6703117028632E-01  1.6174404323364E+00
139  1.3800000000000E+00 -3.7392360812453E-01  1.5843154253398E+00
140  1.3900000000000E+00 -3.7912965265232E-01  1.5463324053794E+00
141  1.4000000000000E+00 -3.8265563113018E-01  1.5036161203106E+00
142  1.4100000000000E+00 -3.8451690958756E-01  1.4563283534458E+00
143  1.4200000000000E+00 -3.8473812027199E-01  1.4046682105408E+00
144  1.4300000000000E+00 -3.8335333781928E-01  1.3488721138676E+00
145  1.4400000000000E+00 -3.8040619673810E-01  1.2892134703845E+00
146  1.4500000000000E+00 -3.7594994161861E-01  1.2260019769650E+00
147  1.4600000000000E+00 -3.7004740013311E-01  1.1595825210995E+00
148  1.4700000000000E+00 -3.6277086736558E-01  1.0903336303437E+00
149  1.4800000000000E+00 -3.5420188830427E-01  1.0186654180935E+00
150  1.4900000000000E+00 -3.4443092342237E-01  9.4501696693435E-01
151  1.5000000000000E+00 -3.3355688015834E-01  8.6985308381768E-01
152  1.5100000000000E+00 -3.2168649077352E-01  7.9366035362991E-01
153  1.5200000000000E+00 -3.0893351449698E-01  7.1694240927906E-01
154  1.5300000000000E+00 -2.9541773907013E-01  6.4021432724849E-01
155  1.5400000000000E+00 -2.8126375372542E-01  5.6399604748259E-01
156  1.5500000000000E+00 -2.6659946231296E-01  4.8880470560126E-01
157  1.5600000000000E+00 -2.5155430167092E-01  4.1514575359711E-01
158  1.5700000000000E+00 -2.3625712642496E-01  3.4350273236972E-01
159  1.5800000000000E+00 -2.2083371619586E-01  2.7432553991668E-01
160  1.5900000000000E+00 -2.0540385855181E-01  2.0801703644527E-01
161  1.6000000000000E+00 -1.9007799593684E-01  1.4491803194811E-01
162  1.6100000000000E+00 -1.7495339884824E-01  8.5290600332518E-02
163  1.6200000000000E+00 -1.6011546770767E-01  2.9331751208642E-02
164  1.6300000000000E+00 -1.4564272890457E-01 -2.2793838267313E-02
165  1.6400000000000E+00 -1.3160763543951E-01 -7.0947644861091E-02
166  1.6500000000000E+00 -1.1807607269823E-01 -1.1501898765466E-01
167  1.6600000000000E+00 -1.0510704427816E-01 -1.5492575640946E-01
168  1.6700000000000E+00 -9.2752399260237E-02 -1.9061502459833E-01
169  1.6800000000000E+00 -8.1056624639283E-02 -2.2206340884499E-01
170  1.6900000000000E+00 -7.0056704551988E-02 -2.4927717150819E-01
171  1.7000000000000E+00 -5.9782047108831E-02 -2.7229206611503E-01
172  1.7100000000000E+00 -5.0254479287447E-02 -2.9117292595899E-01
173  1.7200000000000E+00 -4.1488309716406E-02 -3.0601299845294E-01
174  1.7300000000000E+00 -3.3490458517694E-02 -3.1693303025743E-01
175  1.7400000000000E+00 -2.6260652724487E-02 -3.2408011057909E-01
176  1.7500000000000E+00 -1.9791685204526E-02 -3.2762628209067E-01
177  1.7600000000000E+00 -1.4069734364432E-02 -3.2776693134011E-01
178  1.7700000000000E+00 -9.0747413728527E-03 -3.2471897237099E-01
179  1.7800000000000E+00 -4.7808410489303E-03 -3.1871883942737E-01
180  1.7900000000000E+00 -1.1568420823144E-03 -3.1002030626353E-01
181  1.8000000000000E+00  1.8332482325605E-03 -2.9889215128625E-01
182  1.8100000000000E+00  4.2296600114552E-03 -2.8561568932887E-01
183  1.8200000000000E+00  6.0762631512377E-03 -2.7048219199303E-01
184  1.8300000000000E+00  7.4199420041800E-03 -2.5379021967240E-01
185  1.8400000000000E+00  8.3099485700395E-03 -2.3584288926301E-01
186  1.8500000000000E+00  8.7972406134365E-03 -2.1694510216708E-01
187  1.8600000000000E+00  8.9338112563403E-03 -1.9740075763225E-01
188  1.8700000000000E+00  8.7720166805746E-03 -1.7750997668799E-01
189  1.8800000000000E+00  8.3639102672940E-03 -1.5756636636371E-01
190  1.8900000000000E+00  7.7605725496266E-03 -1.3785430707102E-01
191  1.9000000000000E+00  7.0115188220963E-03 -1.1864646167091E-01
192  1.9100000000000E+00  6.1639609514601E-03 -1.0020102739005E-01
193  1.9200000000000E+00  5.2608092043046E-03 -8.2756143447485E-02
194  1.9300000000000E+00  4.3418390569279E-03 -6.6531485006171E-02
195  1.9400000000000E+00  3.4455119131583E-03 -5.1731548911403E-02
196  1.9500000000000E+00  2.6056701692705E-03 -3.8537563508496E-02
197  1.9600000000000E+00  1.8513570663219E-03 -2.7106337828067E-02
198  1.9700000000000E+00  1.2064133288576E-03 -1.7568735034812E-02
199  1.9800000000000E+00  6.8940327969732E-04 -1.0031835470199E-02
200  1.9900000000000E+00  3.1132148875736E-04 -4.5468646794901E-03
201  2.0000000000000E+00  8.3599143039861E-05 -1.2313748281763E-03
202  2.0100000000000E+00  1.7926824413664E-06 -2.6721699491107E-05
203  2.0200000000000E+00 -2.4410918641741E-06  3.6491196589505E-05
204  2.0300000000000E+00  1.3953600746125E-06 -2.0662081273831E-05
205  2.04 -0.  0.
206  2.05 -0. -0.
207  2.06  0.  0.
208  2.07  0.  0.
209  2.08  0.  0.
210  2.09  0.  0.
211  2.10  0.  0.
212  2.11  0.  0.
213  2.12  0.  0.
214  2.13  0.  0.
215  2.14  0.  0.
216  2.15  0.  0.
217  2.16  0.  0.
218  2.17  0.  0.
219  2.18  0.  0.
220  2.19  0.  0.
221  2.20  0.  0.
222  2.21  0.  0.
223  2.22  0.  0.
224  2.23  0.  0.
225  2.24  0.  0.
226  2.25  0.  0.
227  2.26  0.  0.
228  2.27  0.  0.
229  2.28  0.  0.
230  2.29  0.  0.
231  2.30  0.  0.
232  2.31  0.  0.
233  2.32  0.  0.
234  2.33  0.  0.
235  2.34  0.  0.
236  2.35  0.  0.
237  2.36  0.  0.
238  2.37  0.  0.
239  2.38  0.  0.
240  2.39  0.  0.
241  2.40  0.  0.
242  2.41  0.  0.
243  2.42  0.  0.
244  2.43  0.  0.
245  2.44  0.  0.
246  2.45  0.  0.
247  2.46  0.  0.
248  2.47  0.  0.
249  2.48  0.  0.
250  2.49  0.  0.
251  2.50  0.  0.
252  2.51  0.  0.
253  2.52  0.  0.
254  2.53  0.  0.
255  2.54  0.  0.
256  2.55  0.  0.
257  2.56  0.  0.
258  2.57  0.  0.
259  2.58  0.  0.
260  2.59  0.  0.
261  2.60  0.  0.
262  2.61  0.  0.
263  2.62  0.  0.
264  2.63  0.  0.
265  2.64  0.  0.
266  2.65  0.  0.
267  2.66  0.  0.
268  2.67  0.  0.
269  2.68  0.  0.
270  2.69  0.  0.
271  2.70  0.  0.
272  2.71  0.  0.
273  2.72  0.  0.
274  2.73  0.  0.
275  2.74  0.  0.
276  2.75  0.  0.
277  2.76  0.  0.
278  2.77  0.  0.
279  2.78  0.  0.
280  2.79  0.  0.
281  2.80  0.  0.
282  2.81  0.  0.
283  2.82  0.  0.
284  2.83  0.  0.
285  2.84  0.  0.
286  2.85  0.  0.
287  2.86  0.  0.
288  2.87  0.  0.
289  2.88  0.  0.
290  2.89  0.  0.
291  2.90  0.  0.
292  2.91  0.  0.
293  2.92  0.  0.
294  2.93  0.  0.
295  2.94  0.  0.
296  2.95  0.  0.
297  2.96  0.  0.
298  2.97  0.  0.
299  2.98  0.  0.
300  2.99  0.  0.
301  3.00  0.  0.
302  3.01  0.  0.
303  3.02  0.  0.
304  3.03  0.  0.
305  3.04  0.  0.
306  3.05  0.  0.
307  3.06  0.  0.
308  3.07  0.  0.
309  3.08  0.  0.
310  3.09  0.  0.
311  3.10  0.  0.
312  3.11  0.  0.
313  3.12  0.  0.
314  3.13  0.  0.
315  3.14  0.  0.
316  3.15  0.  0.
317  3.16  0.  0.
318  3.17  0.  0.
319  3.18  0.  0.
320  3.19  0.  0.
321  3.20  0.  0.
322  3.21  0.  0.
323  3.22  0.  0.
324  3.23  0.  0.
325  3.24  0.  0.
326  3.25  0.  0.
327  3.26  0.  0.
328  3.27  0.  0.
329  3.28  0.  0.
330  3.29  0.  0.
331  3.30  0.  0.
332  3.31  0.  0.
333  3.32  0.  0.
334  3.33  0.  0.
335  3.34  0.  0.
336  3.35  0.  0.
337  3.36  0.  0.
338  3.37  0.  0.
339  3.38  0.  0.
340  3.39  0.  0.
341  3.40  0.  0.
342  3.41  0.  0.
343  3.42  0.  0.
344  3.43  0.  0.
345  3.44  0.  0.
346  3.45  0.  0.
347  3.46  0.  0.
348  3.47  0.  0.
349  3.48  0.  0.
350  3.49  0.  0.
351  3.50  0.  0.
352  3.51  0.  0.
353  3.52  0.  0.
354  3.53  0.  0.
355  3.54  0.  0.
356  3.55  0.  0.
357  3.56  0.  0.
358  3.57  0.  0.
359  3.58  0.  0.
360  3.59  0.  0.
361  3.60  0.  0.
362  3.61  0.  0.
363  3.62  0.  0.
364  3.63  0.  0.
365  3.64  0.  0.
366  3.65  0.  0.
367  3.66  0.  0.
368  3.67  0.  0.
369  3.68  0.  0.
370  3.69  0.  0.
371  3.70  0.  0.
372  3.71  0.  0.
373  3.72  0.  0.
374  3.73  0.  0.
375  3.74  0.  0.
376  3.75  0.  0.
377  3.76  0.  0.
378  3.77  0.  0.
379  3.78  0.  0.
380  3.79  0.  0.
381  3.80  0.  0.
382  3.81  0.  0.
383  3.82  0.  0.
384  3.83  0.  0.
385  3.84  0.  0.
386  3.85  0.  0.
387  3.86  0.  0.
388  3.87  0.  0.
389  3.88  0.  0.
390  3.89  0.  0.
391  3.90  0.  0.
392  3.91  0.  0.
393  3.92  0.  0.
394  3.93  0.  0.
395  3.94  0.  0.
396  3.95  0.  0.
397  3.96  0.  0.
398  3.97  0.  0.
399  3.98  0.  0.
400  3.99  0.  0.
401  4.00  0.  0.
402  4.01  0.  0.
403  4.02  0.  0.
404  4.03  0.  0.
405  4.04  0.  0.
406  4.05  0.  0.
407  4.06  0.  0.
408  4.07  0.  0.
409  4.08  0.  0.
410  4.09  0.  0.
411  4.10  0.  0.
412  4.11  0.  0.
413  4.12  0.  0.
414  4.13  0.  0.
415  4.14  0.  0.
416  4.15  0.  0.
417  4.16  0.  0.
418  4.17  0.  0.
419  4.18  0.  0.
420  4.19  0.  0.
421  4.20  0.  0.
422  4.21  0.  0.
423  4.22  0.  0.
424  4.23  0.  0.
425  4.24  0.  0.
426  4.25  0.  0.
427  4.26  0.  0.
428  4.27  0.  0.
429  4.28  0.  0.
430  4.29  0.  0.
431  4.30  0.  0.
432  4.31  0.  0.
433  4.32  0.  0.
434  4.33  0.  0.
435  4.34  0.  0.
436  4.35  0.  0.
437  4.36  0.  0.
438  4.37  0.  0.
439  4.38  0.  0.
440  4.39  0.  0.
441  4.40  0.  0.
442  4.41  0.  0.
443  4.42  0.  0.
444  4.43  0.  0.
445  4.44  0.  0.
446  4.45  0.  0.
447  4.46  0.  0.
448  4.47  0.  0.
449  4.48  0.  0.
450  4.49  0.  0.
451  4.50  0.  0.
452  4.51  0.  0.
453  4.52  0.  0.
454  4.53  0.  0.
455  4.54  0.  0.
456  4.55  0.  0.
457  4.56  0.  0.
458  4.57  0.  0.
459  4.58  0.  0.
460  4.59  0.  0.
461  4.60  0.  0.
462  4.61  0.  0.
463  4.62  0.  0.
464  4.63  0.  0.
465  4.64  0.  0.
466  4.65  0.  0.
467  4.66  0.  0.
468  4.67  0.  0.
469  4.68  0.  0.
470  4.69  0.  0.
471  4.70  0.  0.
472  4.71  0.  0.
473  4.72  0.  0.
474  4.73  0.  0.
475  4.74  0.  0.
476  4.75  0.  0.
477  4.76  0.  0.
478  4.77  0.  0.
479  4.78  0.  0.
480  4.79  0.  0.
481  4.80  0.  0.
482  4.81  0.  0.
483  4.82  0.  0.
484  4.83  0.  0.
485  4.84  0.  0.
486  4.85  0.  0.
487  4.86  0.  0.
488  4.87  0.  0.
489  4.88  0.  0.
490  4.89  0.  0.
491  4.90  0.  0.
492  4.91  0.  0.
493  4.92  0.  0.
494  4.93  0.  0.
495  4.94  0.  0.
496  4.95  0.  0.
497  4.96  0.  0.
498  4.97  0.  0.
499  4.98  0.  0.
500  4.99  0.  0.
501  5.00  0.  0.
502  5.01  0.  0.
503  5.02  0.  0.
504  5.03  0.  0.
505  5.04  0.  0.
506  5.05  0.  0.
507  5.06  0.  0.
508  5.07  0.  0.
509  5.08  0.  0.
510  5.09  0.  0.
511  5.10  0.  0.
512  5.11  0.  0.
513  5.12  0.  0.
514  5.13  0.  0.
515  5.14  0.  0.
516  5.15  0.  0.
517  5.16  0.  0.
518  5.17  0.  0.
519  5.18  0.  0.
520  5.19  0.  0.
521  5.20  0.  0.
522  5.21  0.  0.
523  5.22  0.  0.
524  5.23  0.  0.
525  5.24  0.  0.
526  5.25  0.  0.
527  5.26  0.  0.
528  5.27  0.  0.
529  5.28  0.  0.
530  5.29  0.  0.
531  5.30  0.  0.
532  5.31  0.  0.
533  5.32  0.  0.
534  5.33  0.  0.
535  5.34  0.  0.
536  5.35  0.  0.
537  5.36  0.  0.
538  5.37  0.  0.
539  5.38  0.  0.
540  5.39  0.  0.
541  5.40  0.  0.
542  5.41  0.  0.
543  5.42  0.  0.
544  5.43  0.  0.
545  5.44  0.  0.
546  5.45  0.  0.
547  5.46  0.  0.
548  5.47  0.  0.
549  5.48  0.  0.
550  5.49  0.  0.
551  5.50  0.  0.
552  5.51  0.  0.
553  5.52  0.  0.
554  5.53  0.  0.
555  5.54  0.  0.
556  5.55  0.  0.
557  5.56  0.  0.
558  5.57  0.  0.
559  5.58  0.  0.
560  5.59  0.  0.
561  5.60  0.  0.
562  5.61  0.  0.
563  5.62  0.  0.
564  5.63  0.  0.
565  5.64  0.  0.
566  5.65  0.  0.
567  5.66  0.  0.
568  5.67  0.  0.
569  5.68  0.  0.
570  5.69  0.  0.
571  5.70  0.  0.
572  5.71  0.  0.
573  5.72  0.  0.
574  5.73  0.  0.
575  5.74  0.  0.
576  5.75  0.  0.
577  5.76  0.  0.
578  5.77  0.  0.
579  5.78  0.  0.
580  5.79  0.  0.
581  5.80  0.  0.
582  5.81  0.  0.
583  5.82  0.  0.
584  5.83  0.  0.
585  5.84  0.  0.
586  5.85  0.  0.
587  5.86  0.  0.
588  5.87  0.  0.
589  5.88  0.  0.
590  5.89  0.  0.
591  5.90  0.  0.
592  5.91  0.  0.
593  5.92  0.  0.
594  5.93  0.  0.
595  5.94  0.  0.
596  5.95  0.  0.
597  5.96  0.  0.
598  5.97  0.  0.
599  5.98  0.  0.
600  5.99  0.  0.
1                         4.7233329231565E+00  1.3535265198556E+00
1  0.0000000000000E+00  1.8467831472413E-08 -4.3428685356228E-08
2  1.0000000000000E-02  1.4605957562706E-03 -1.6934611320898E-03
3  2.0000000000000E-02  5.8170515892752E-03 -6.7175038590194E-03
4  3.0000000000000E-02  1.2993907929339E-02 -1.4904359492830E-02
5  4.0000000000000E-02  2.2867170367635E-02 -2.5978565612455E-02
6  5.0000000000000E-02  3.5266928968127E-02 -3.9563104798210E-02
7  6.0000000000000E-02  4.9980950078699E-02 -5.5187821968246E-02
8  7.0000000000000E-02  6.6759167203230E-02 -7.2299947627027E-02
9  8.0000000000000E-02  8.5318979028561E-02 -9.0276510907193E-02
10  9.0000000000000E-02  1.0535124605160E-01 -1.0843838713407E-01
11  1.0000000000000E-01  1.2652686275347E-01 -1.2606569054531E-01
12  1.1000000000000E-01  1.4850377020977E-01 -1.4241419443855E-01
13  1.2000000000000E-01  1.7093426465123E-01 -1.5673243896841E-01
14  1.3000000000000E-01  1.9347245098828E-01 -1.6827917151866E-01
15  1.4000000000000E-01  2.1578168682153E-01 -1.7634075635522E-01
16  1.5000000000000E-01  2.3754186205441E-01 -1.8024818929991E-01
17  1.6000000000000E-01  2.5845636192175E-01 -1.7939335949403E-01
18  1.7000000000000E-01  2.7825856700383E-01 -1.7324421384283E-01
19  1.8000000000000E-01  2.9671775250802E-01 -1.6135850020226E-01
20  1.9000000000000E-01  3.1364426060599E-01 -1.4339579241089E-01
21  2.0000000000000E-01  3.2889383369903E-01 -1.1912753337227E-01
22  2.1000000000000E-01  3.4237101287868E-01 -8.8444870929192E-02
23  2.2000000000000E-01  3.5403152424209E-01 -5.1364104504314E-02
24  2.3000000000000E-01  3.6388359575689E-01 -8.0296075801256E-03
25  2.4000000000000E-01  3.7198816866275E-01  4.1285858853295E-02
26  2.5000000000000E-01  3.7845798953214E-01  9.6183474714352E-02
27  2.6000000000000E-01  3.8345559166011E-01  1.5614331093002E-01
28  2.7000000000000E-01  3.8719019697028E-01  2.2053182809587E-01
29  2.8000000000000E-01  3.8991359166871E-01  2.8861179873631E-01
30  2.9000000000000E-01  3.9191505001189E-01  3.5955447850355E-01
31  3.0000000000000E-01  3.9351540035998E-01  4.3245380507554E-01
32  3.1000000000000E-01  3.9506034576254E-01  5.0634236099272E-01
33  3.2000000000000E-01  3.9691316730695E-01  5.8020879907045E-01
34  3.3000000000000E-01  3.9944695202001E-01  6.5301639710948E-01
35  3.4000000000000E-01  4.0303649797028E-01  7.2372238306481E-01
36  3.5000000000000E-01  4.0805005713847E-01  7.9129765316684E-01
37  3.6000000000000E-01  4.1484108143170E-01  8.5474649413563E-01
38  3.7000000000000E-01  4.2374013879530E-01  9.1312591686051E-01
39  3.8000000000000E-01  4.3504716466972E-01  9.6556421286613E-01
40  3.9000000000000E-01  4.4902420905690E-01  1.0112783565317E+00
41  4.0000000000000E-01  4.6588883127268E-01  1.0495898952043E+00
42  4.1000000000000E-01  4.8580828320305E-01  1.0799389957333E+00
43  4.2000000000000E-01  5.0889460774818E-01  1.1018963490970E+00
44  4.3000000000000E-01  5.3520076238012E-01  1.1151726740942E+00
45  4.4000000000000E-01  5.6471785866348E-01  1.1196256058284E+00
46  4.5000000000000E-01  5.9737358754490E-01  1.1152638040785E+00
47  4.6000000000000E-01  6.3303187760004E-01  1.1022481697224E+00
48  4.7000000000000E-01  6.7149380966181E-01  1.0808901131358E+00
49  4.8000000000000E-01  7.1249978679419E-01  1.0516468758857E+00
50  4.9000000000000E-01  7.5573293389036E-01  1.0151139649579E+00
51  5.0000000000000E-01  8.0082367674083E-01  9.7201481608817E-01
52  5.1000000000000E-01  8.4735542671259E-01  9.2318785838291E-01
53  5.2000000000000E-01  8.9487127467249E-01  8.6957120521996E-01
54  5.3000000000000E-01  9.4288157692347E-01  8.1218524536532E-01
55  5.4000000000000E-01  9.9087229712235E-01  7.5211345233636E-01
56  5.5000000000000E-01  1.0383139517963E+00  6.9048176838683E-01
57  5.6000000000000E-01  1.0846709935121E+00  6.2843695128497E-01
58  5.7000000000000E-01  1.1294114552676E+00  5.6712429662231E-01
59  5.8000000000000E-01  1.1720166725024E+00  5.0766516518182E-01
60  5.9000000000000E-01  1.2119908954337E+00  4.5113475350867E-01
61  6.0000000000000E-01  1.2488706043218E+00  3.9854054601595E-01
62  6.1000000000000E-01  1.2822333437963E+00  3.5080187863602E-01
63  6.2000000000000E-01  1.3117058994911E+00  3.0873102726903E-01
64  6.3000000000000E-01  1.3369716508512E+00  2.7301620932505E-01
65  6.4000000000000E-01  1.3577769479124E+00  2.4420685390227E-01
66  6.5000000000000E-01  1.3739363768798E+00  2.2270145614520E-01
67  6.6000000000000E-01  1.3853367991531E+00  2.0873828478232E-01
68  6.7000000000000E-01  1.3919400707035E+00  2.0238915958059E-01
69  6.8000000000000E-01  1.3937843730058E+00  2.0355645842663E-01
70  6.9000000000000E-01  1.3909841126121E+00  2.1197345299854E-01
71  7.0000000000000E-01  1.3837283734500E+00  2.2720800866054E-01
72  7.1000000000000E-01  1.3722779335238E+00  2.4866961948728E-01
73  7.2000000000000E-01  1.3569608853715E+00  2.7561968443753E-01
74  7.3000000000000E-01  1.3381669268534E+00  3.0718486688904E-01
75  7.4000000000000E-01  1.3163404150898E+00  3.4237331826541E-01
76  7.5000000000000E-01  1.2919723011199E+00  3.8009348852199E-01
77  7.6000000000000E-01  1.2655910856238E+00  4.1917519297414E-01
78  7.7000000000000E-01  1.2377529563846E+00  4.5839255741001E-01
79  7.8000000000000E-01  1.2090312856523E+00  4.9648842260341E-01
80  7.9000000000000E-01  1.1800056798438E+00  5.3219975608303E-01
81  8.0000000000000E-01  1.1512507847651E+00  5.6428359403683E-01
82  8.1000000000000E-01  1.1233250565401E+00  5.9154302009554E-01
83  8.2000000000000E-01  1.0967597114956E+00  6.1285268084799E-01
84  8.3000000000000E-01  1.0720480672948E+00  6.2718334051718E-01
85  8.4000000000000E-01  1.0496354826072E+00  6.3362498931678E-01
86  8.5000000000000E-01  1.0299100936067E+00  6.3140804147838E-01
87  8.6000000000000E-01  1.0131945327395E+00  6.1992218947311E-01
88  8.7000000000000E-01  9.9973879870213E-01  5.9873252005693E-01
89  8.8000000000000E-01  9.8971442669981E-01  5.6759254478569E-01
90  8.9000000000000E-01  9.8321008516344E-01  5.2645385175691E-01
91  9.0000000000000E-01  9.8022869959441E-01  4.7547214558065E-01
92  9.1000000000000E-01  9.8068617654238E-01  4.1500950787721E-01
93  9.2000000000000E-01  9.8441177140720E-01  3.4563277975230E-01
94  9.3000000000000E-01  9.9115011333289E-01  2.6810803943742E-01
95  9.4000000000000E-01  1.0005648694959E+00  1.8339122127056E-01
96  9.5000000000000E-01  1.0122440001619E+00  9.2614995062277E-02
97  9.6000000000000E-01  1.0257065255823E+00 -2.9279037396604E-03
98  9.7000000000000E-01  1.0404106967019E+00 -1.0180463415805E-01
99  9.8000000000000E-01  1.0557634343016E+00 -2.0246517678963E-01
100  9.9000000000000E-01  1.0711308761520E+00 -3.0326784570582E-01
101  1.0000000000000E+00  1.0858498494823E+00 -4.0250695060354E-01
102  1.0100000000000E+00  1.0992400670154E+00 -4.9844212990948E-01
103  1.0200000000000E+00  1.1106168293665E+00 -5.8932883929837E-01
104  1.0300000000000E+00  1.1193040050808E+00 -6.7344945310887E-01
105  1.0400000000000E+00  1.1246470522077E+00 -7.4914441896932E-01
106  1.0500000000000E+00  1.1260258422776E+00 -8.1484289900261E-01
107  1.0600000000000E+00  1.1228670489217E+00 -8.6909233445457E-01
108  1.0700000000000E+00  1.1146558691667E+00 -9.1058638446903E-01
109  1.0800000000000E+00  1.1009468555848E+00 -9.3819071390607E-01
110  1.0900000000000E+00  1.0813736517561E+00 -9.5096613899454E-01
111  1.1000000000000E+00  1.0556574417876E+00 -9.4818868298508E-01
112  1.1100000000000E+00  1.0236139464362E+00 -9.2936614562014E-01
113  1.1200000000000E+00  9.8515882352126E-01 -8.9425084978047E-01
114  1.1300000000000E+00  9.4031135812815E-01 -8.4284829450915E-01
115  1.1400000000000E+00  8.8919635829337E-01 -7.7542151508018E-01
116  1.1500000000000E+00  8.3204420368612E-01 -6.9249102609355E-01
117  1.1600000000000E+00  7.6918902788086E-01 -5.9483030187932E-01
118  1.1700000000000E+00  7.0106504830421E-01 -4.8345682776209E-01
119  1.1800000000000E+00  6.2820109154115E-01 -3.5961883529419E-01
120  1.1900000000000E+00  5.5121339435471E-01 -2.2477791193680E-01
121  1.2000000000000E+00  4.7079679244691E-01 -8.0587750716101E-02
122  1.2100000000000E+00  3.8771443847634E-01  7.1130624709363E-02
123  1.2200000000000E+00  3.0278621818287E-01  2.2841675927229E-01
124  1.2300000000000E+00  2.1687605770849E-01  3.8920133213197E-01
125  1.2400000000000E+00  1.3087833610812E-01  5.5133888109527E-01
126  1.2500000000000E+00  4.5703634249651E-02  7.1264213714360E-01
127  1.2600000000000E+00 -3.7735935689374E-02  8.7091738920643E-01
128  1.2700000000000E+00 -1.1854156714260E-01  1.0240002780837E+00
129  1.2800000000000E+00 -1.9584250528209E-01  1.1697914078893E+00
130  1.2900000000000E+00 -2.6881044546536E-01  1.3062911635625E+00
131  1.3000000000000E+00 -3.3667333201810E-01  1.4316331339277E+00
132  1.3100000000000E+00 -3.9872831479001E-01  1.5441155613548E+00
133  1.3200000000000E+00 -4.5435363463141E-01  1.6422302707251E+00