Pr    ONCVPSP-4.0.1  r_core=   2.01067   1.60183   1.90528   1.60183
59.0000     13.0000      230112    zatom,zion,pspd
8      11   3     4   600     0    pspcod,pspxc,lmax,lloc,mmax,r2well
5.99000000  4.00000000  0.00000000    rchrg fchrg qchrg
2     2     2     2     0    nproj
1     1           extension_switch
0                         6.5328311267992E+00  8.0245017021680E-01
1  0.0000000000000E+00  1.2876499866366E-10 -3.5384351004808E-10
2  1.0000000000000E-02  3.1497464389181E-02 -3.0470961569270E-03
3  2.0000000000000E-02  6.2997581225061E-02 -6.1191713755982E-03
4  3.0000000000000E-02  9.4502729443879E-02 -9.2406458553342E-03
5  4.0000000000000E-02  1.2601474408142E-01 -1.2434829671253E-02
6  5.0000000000000E-02  1.5753465209092E-01 -1.5723386622870E-02
7  6.0000000000000E-02  1.8906241739068E-01 -1.9125820521924E-02
8  7.0000000000000E-02  2.2059669806520E-01 -2.2658990979480E-02
9  8.0000000000000E-02  2.5213461851524E-01 -2.6336665398496E-02
10  9.0000000000000E-02  2.8367155919340E-01 -3.0169113443044E-02
11  1.0000000000000E-01  3.1520096637533E-01 -3.4162749743998E-02
12  1.1000000000000E-01  3.4671418420388E-01 -3.8319830018775E-02
13  1.2000000000000E-01  3.7820031100662E-01 -4.2638205136245E-02
14  1.3000000000000E-01  4.0964608162856E-01 -4.7111136954001E-02
15  1.4000000000000E-01  4.4103577724465E-01 -5.1727179002006E-02
16  1.5000000000000E-01  4.7235116382281E-01 -5.6470124292150E-02
17  1.6000000000000E-01  5.0357146010169E-01 -6.1319021706611E-02
18  1.7000000000000E-01  5.3467333563061E-01 -6.6248261568165E-02
19  1.8000000000000E-01  5.6563093909576E-01 -7.1227730132515E-02
20  1.9000000000000E-01  5.9641595683019E-01 -7.6223031875658E-02
21  2.0000000000000E-01  6.2699770107832E-01 -8.1195777588752E-02
22  2.1000000000000E-01  6.5734322726279E-01 -8.6103935448043E-02
23  2.2000000000000E-01  6.8741747918505E-01 -9.0902241408598E-02
24  2.3000000000000E-01  7.1718346078543E-01 -9.5542664486940E-02
25  2.4000000000000E-01  7.4660243279545E-01 -9.9974921758681E-02
26  2.5000000000000E-01  7.7563413233970E-01 -1.0414703721169E-01
27  2.6000000000000E-01  8.0423701328805E-01 -1.0800593797158E-01
28  2.7000000000000E-01  8.3236850492519E-01 -1.1149808086200E-01
29  2.8000000000000E-01  8.5998528629538E-01 -1.1457010178470E-01
30  2.9000000000000E-01  8.8704357339902E-01 -1.1716948000925E-01
31  3.0000000000000E-01  9.1349941626496E-01 -1.1924520915623E-01
32  3.1000000000000E-01  9.3930900280171E-01 -1.2074846644365E-01
33  3.2000000000000E-01  9.6442896624215E-01 -1.2163327164955E-01
34  3.3000000000000E-01  9.8881669294157E-01 -1.2185712722520E-01
35  3.4000000000000E-01  1.0124306272689E+00 -1.2138163107577E-01
36  3.5000000000000E-01  1.0352305703458E+00 -1.2017305370831E-01
37  3.6000000000000E-01  1.0571779694381E+00 -1.1820287173008E-01
38  3.7000000000000E-01  1.0782361948890E+00 -1.1544825006205E-01
39  3.8000000000000E-01  1.0983708016028E+00 -1.1189246570943E-01
40  3.9000000000000E-01  1.1175497722385E+00 -1.0752526649908E-01
41  4.0000000000000E-01  1.1357437394589E+00 -1.0234315884907E-01
42  4.1000000000000E-01  1.1529261847909E+00 -9.6349619370192E-02
43  4.2000000000000E-01  1.1690736118999E+00 -8.9555225907363E-02
44  4.3000000000000E-01  1.1841656923415E+00 -8.1977704502336E-02
45  4.4000000000000E-01  1.1981853821511E+00 -7.3641889688389E-02
46  4.5000000000000E-01  1.2111190079369E+00 -6.4579596504256E-02
47  4.6000000000000E-01  1.2229563214720E+00 -5.4829403626877E-02
48  4.7000000000000E-01  1.2336905221191E+00 -4.4436348061103E-02
49  4.8000000000000E-01  1.2433182467745E+00 -3.3451532877120E-02
50  4.9000000000000E-01  1.2518395273724E+00 -2.1931650541444E-02
51  5.0000000000000E-01  1.2592577163483E+00 -9.9384254337414E-03
52  5.1000000000000E-01  1.2655793808206E+00  2.4620198333525E-03
53  5.2000000000000E-01  1.2708141665973E+00  1.5199868682254E-02
54  5.3000000000000E-01  1.2749746334593E+00  2.8202378869765E-02
55  5.4000000000000E-01  1.2780760634990E+00  4.1394707370174E-02
56  5.5000000000000E-01  1.2801362446059E+00  5.4700783570918E-02
57  5.6000000000000E-01  1.2811752314816E+00  6.8044221763134E-02
58  5.7000000000000E-01  1.2812150868327E+00  8.1349263251289E-02
59  5.8000000000000E-01  1.2802796056332E+00  9.4541737843202E-02
60  5.9000000000000E-01  1.2783940255543E+00  1.0755003402474E-01
61  6.0000000000000E-01  1.2755847268391E+00  1.2030606677661E-01
62  6.1000000000000E-01  1.2718789250411E+00  1.3274623176240E-01
63  6.2000000000000E-01  1.2673043601517E+00  1.4481233450958E-01
64  6.3000000000000E-01  1.2618889857059E+00  1.5645248322494E-01
65  6.4000000000000E-01  1.2556606614865E+00  1.6762193403091E-01
66  6.5000000000000E-01  1.2486468534310E+00  1.7828387768502E-01
67  6.6000000000000E-01  1.2408743442916E+00  1.8841015724548E-01
68  6.7000000000000E-01  1.2323689585082E+00  1.9798190667378E-01
69  6.8000000000000E-01  1.2231553046153E+00  2.0699010101322E-01
70  6.9000000000000E-01  1.2132565383347E+00  2.1543600954780E-01
71  7.0000000000000E-01  1.2026941492961E+00  2.2333154422015E-01
72  7.1000000000000E-01  1.1914877740815E+00  2.3069949656487E-01
73  7.2000000000000E-01  1.1796550380137E+00  2.3757365748289E-01
74  7.3000000000000E-01  1.1672114278020E+00  2.4399881533532E-01
75  7.4000000000000E-01  1.1541701968230E+00  2.5003062905833E-01
76  7.5000000000000E-01  1.1405423044596E+00  2.5573537428328E-01
77  7.6000000000000E-01  1.1263363905461E+00  2.6118956177333E-01
78  7.7000000000000E-01  1.1115587855715E+00  2.6647942884690E-01
79  7.8000000000000E-01  1.0962135568988E+00  2.7170030583379E-01
80  7.9000000000000E-01  1.0803025908425E+00  2.7695586098686E-01
81  8.0000000000000E-01  1.0638257100424E+00  2.8235722863634E-01
82  8.1000000000000E-01  1.0467808251609E+00  2.8802202670793E-01
83  8.2000000000000E-01  1.0291641195359E+00  2.9407327101770E-01
84  8.3000000000000E-01  1.0109702650305E+00  3.0063819498767E-01
85  8.4000000000000E-01  9.9219266695385E-01  3.0784698458572E-01
86  8.5000000000000E-01  9.7282373557775E-01  3.1583143936438E-01
87  8.6000000000000E-01  9.5285518145027E-01  3.2472357144551E-01
88  8.7000000000000E-01  9.3227833141366E-01  3.3465415515797E-01
89  8.8000000000000E-01  9.1108446197301E-01  3.4575124077325E-01
90  8.9000000000000E-01  8.8926514643628E-01  3.5813864639081E-01
91  9.0000000000000E-01  8.6681261206055E-01  3.7193444249124E-01
92  9.1000000000000E-01  8.4372010329319E-01  3.8724944399675E-01
93  9.2000000000000E-01  8.1998224709459E-01  4.0418572484946E-01
94  9.3000000000000E-01  7.9559541627020E-01  4.2283517013501E-01
95  9.4000000000000E-01  7.7055808672628E-01  4.4327808064254E-01
96  9.5000000000000E-01  7.4487118459471E-01  4.6558184446200E-01
97  9.6000000000000E-01  7.1853841924862E-01  4.8979968977828E-01
98  9.7000000000000E-01  6.9156659834977E-01  5.1596953243489E-01
99  9.8000000000000E-01  6.6396592123053E-01  5.4411293111184E-01
100  9.9000000000000E-01  6.3575024711500E-01  5.7423416210352E-01
101  1.0000000000000E+00  6.0693733492296E-01  6.0631942469957E-01
102  1.0100000000000E+00  5.7754905167369E-01  6.4033618707978E-01
103  1.0200000000000E+00  5.4761154681131E-01  6.7623268144046E-01
104  1.0300000000000E+00  5.1715539010431E-01  7.1393755579339E-01
105  1.0400000000000E+00  4.8621567112543E-01  7.5335968853114E-01
106  1.0500000000000E+00  4.5483205869045E-01  7.9438817044840E-01
107  1.0600000000000E+00  4.2304881901853E-01  8.3689245746944E-01
108  1.0700000000000E+00  3.9091479177066E-01  8.8072269586672E-01
109  1.0800000000000E+00  3.5848332351867E-01  9.2571022028559E-01
110  1.0900000000000E+00  3.2581215859175E-01  9.7166822343299E-01
111  1.1000000000000E+00  2.9296328763539E-01  1.0183925948519E+00
112  1.1100000000000E+00  2.6000275459333E-01  1.0656629248161E+00
113  1.1200000000000E+00  2.2700042318328E-01  1.1132436680423E+00
114  1.1300000000000E+00  1.9402970427630E-01  1.1608854606529E+00
115  1.1400000000000E+00  1.6116724590517E-01  1.2083265826390E+00
116  1.1500000000000E+00  1.2849258791415E-01  1.2552945569801E+00
117  1.1600000000000E+00  9.6087783519898E-02  1.3015078755855E+00
118  1.1700000000000E+00  6.4036990276715E-02  1.3466778413360E+00
119  1.1800000000000E+00  3.2426033129891E-02  1.3905105147293E+00
120  1.1900000000000E+00  1.3419423942658E-03  1.4327087529718E+00
121  1.2000000000000E+00 -2.9127530385241E-02  1.4729743288049E+00
122  1.2100000000000E+00 -5.8894415650870E-02  1.5110101159185E+00
123  1.2200000000000E+00 -8.7871045036270E-02  1.5465223274637E+00
124  1.2300000000000E+00 -1.1597058344786E-01  1.5792227939362E+00
125  1.2400000000000E+00 -1.4310757092278E-01  1.6088312665500E+00
126  1.2500000000000E+00 -1.6919847119679E-01  1.6350777321357E+00
127  1.2600000000000E+00 -1.9416222396924E-01  1.6577047255750E+00
128  1.2700000000000E+00 -2.1792079792113E-01  1.6764696258007E+00
129  1.2800000000000E+00 -2.4039974161921E-01  1.6911469214264E+00
130  1.2900000000000E+00 -2.6152872951885E-01  1.7015304321100E+00
131  1.3000000000000E+00 -2.8124210035219E-01  1.7074354717665E+00
132  1.3100000000000E+00 -2.9947938524899E-01  1.7087009397120E+00
133  1.3200000000000E+00 -3.1618582297728E-01  1.7051913257101E+00
134  1.3300000000000E+00 -3.3131285969963E-01  1.6967986146820E+00
135  1.3400000000000E+00 -3.4481863061062E-01  1.6834440764982E+00
136  1.3500000000000E+00 -3.5666842074138E-01  1.6650799257700E+00
137  1.3600000000000E+00 -3.6683510207901E-01  1.6416908358660E+00
138  1.3700000000000E+00 -3.7529954394175E-01  1.6132952904738E+00
139  1.3800000000000E+00 -3.8205099326450E-01  1.5799467548603E+00
140  1.3900000000000E+00 -3.8708742107479E-01  1.5417346475491E+00
141  1.4000000000000E+00 -3.9041583096519E-01  1.4987850913767E+00
142  1.4100000000000E+00 -3.9205252478568E-01  1.4512614208017E+00
143  1.4200000000000E+00 -3.9202332007458E-01  1.3993644198626E+00
144  1.4300000000000E+00 -3.9036371291557E-01  1.3433322623168E+00
145  1.4400000000000E+00 -3.8711897893460E-01  1.2834401221818E+00
146  1.4500000000000E+00 -3.8234420402643E-01  1.2199994191205E+00
147  1.4600000000000E+00 -3.7610423512213E-01  1.1533566588579E+00
148  1.4700000000000E+00 -3.6847353984764E-01  1.0838918239884E+00
149  1.4800000000000E+00 -3.5953596229499E-01  1.0120162651854E+00
150  1.4900000000000E+00 -3.4938436029944E-01  9.3817003685669E-01
151  1.5000000000000E+00 -3.3812010758945E-01  8.6281861469350E-01
152  1.5100000000000E+00 -3.2585244193610E-01  7.8644892530046E-01
153  1.5200000000000E+00 -3.1269763796245E-01  7.0956461011535E-01
154  1.5300000000000E+00 -2.9877798058437E-01  6.3268043714477E-01
155  1.5400000000000E+00 -2.8422051209434E-01  5.5631576449253E-01
156  1.5500000000000E+00 -2.6915552270565E-01  4.8098694936013E-01
157  1.5600000000000E+00 -2.5371475089251E-01  4.0719858497036E-01
158  1.5700000000000E+00 -2.3802925609813E-01  3.3543343572547E-01
159  1.5800000000000E+00 -2.2222692134498E-01  2.6614092224364E-01
160  1.5900000000000E+00 -2.0642954079448E-01  1.9972400579144E-01
161  1.6000000000000E+00 -1.9074948191467E-01  1.3652452038256E-01
162  1.6100000000000E+00 -1.7528588652936E-01  7.6806903067233E-02
163  1.6200000000000E+00 -1.6012595303128E-01  2.0771449238855E-02
164  1.6300000000000E+00 -1.4534986672343E-01 -3.1413927707742E-02
165  1.6400000000000E+00 -1.3103157168923E-01 -7.9607762678867E-02
166  1.6500000000000E+00 -1.1723826264297E-01 -1.2369674451275E-01
167  1.6600000000000E+00 -1.0403005765430E-01 -1.6359647758514E-01
168  1.6700000000000E+00 -9.1459714618521E-02 -1.9925212020104E-01
169  1.6800000000000E+00 -7.9572415116576E-02 -2.3063876480137E-01
170  1.6900000000000E+00 -6.8405617392209E-02 -2.5776155648188E-01
171  1.7000000000000E+00 -5.7988979326991E-02 -2.8065554928707E-01
172  1.7100000000000E+00 -4.8344351909542E-02 -2.9938530049607E-01
173  1.7200000000000E+00 -3.9485843043853E-02 -3.1404420543473E-01
174  1.7300000000000E+00 -3.1419950853761E-02 -3.2475357784110E-01
175  1.7400000000000E+00 -2.4145764960156E-02 -3.3166148325694E-01
176  1.7500000000000E+00 -1.7655233598337E-02 -3.3494133502113E-01
177  1.7600000000000E+00 -1.1933493759396E-02 -3.3479026492686E-01
178  1.7700000000000E+00 -6.9592609809067E-03 -3.3142728250252E-01
179  1.7800000000000E+00 -2.7052747946251E-03 -3.2509123909173E-01
180  1.7900000000000E+00  8.6120466010605E-04 -3.1603861459282E-01
181  1.8000000000000E+00  3.7778538543064E-03 -3.0454114648135E-01
182  1.8100000000000E+00  6.0867023775217E-03 -2.9088332233884E-01
183  1.8200000000000E+00  7.8335145551335E-03 -2.7535975829111E-01
184  1.8300000000000E+00  9.0671423549180E-03 -2.5827248699696E-01
185  1.8400000000000E+00  9.8388559924005E-03 -2.3992817953074E-01
186  1.8500000000000E+00  1.0201659033696E-02 -2.2063532694270E-01
187  1.8600000000000E+00  1.0209594622600E-02 -2.0070140633244E-01
188  1.8700000000000E+00  9.9170491822549E-03 -1.8043005490733E-01
189  1.8800000000000E+00  9.3780644112448E-03 -1.6011829192859E-01
190  1.8900000000000E+00  8.6456439589908E-03 -1.4005375895627E-01
191  1.9000000000000E+00  7.7711394393522E-03 -1.2051218326006E-01
192  1.9100000000000E+00  6.8034871336518E-03 -1.0175458070963E-01
193  1.9200000000000E+00  5.7871457077161E-03 -8.4021522449738E-02
194  1.9300000000000E+00  4.7633054115537E-03 -6.7534832901077E-02
195  1.9400000000000E+00  3.7717662318233E-03 -5.2501015256475E-02
196  1.9500000000000E+00  2.8475137477386E-03 -3.9102890716544E-02
197  1.9600000000000E+00  2.0205359338221E-03 -2.7498446924064E-02
198  1.9700000000000E+00  1.3154080122611E-03 -1.7819290115278E-02
199  1.9800000000000E+00  7.5123084069774E-04 -1.0172840231648E-02
200  1.9900000000000E+00  3.3914604796426E-04 -4.6098395704529E-03
201  2.0000000000000E+00  9.1075403350051E-05 -1.2481665276562E-03
202  2.0100000000000E+00  1.9541932708373E-06 -2.7080204078414E-05
203  2.0200000000000E+00 -2.6598639454917E-06  3.6977448207500E-05
204  2.0300000000000E+00  1.5200212429449E-06 -2.0940619112642E-05
205  2.04 -0.  0.
206  2.05 -0. -0.
207  2.06  0.  0.
208  2.07  0.  0.
209  2.08  0.  0.
210  2.09  0.  0.
211  2.10  0.  0.
212  2.11  0.  0.
213  2.12  0.  0.
214  2.13  0.  0.
215  2.14  0.  0.
216  2.15  0.  0.
217  2.16  0.  0.
218  2.17  0.  0.
219  2.18  0.  0.
220  2.19  0.  0.
221  2.20  0.  0.
222  2.21  0.  0.
223  2.22  0.  0.
224  2.23  0.  0.
225  2.24  0.  0.
226  2.25  0.  0.
227  2.26  0.  0.
228  2.27  0.  0.
229  2.28  0.  0.
230  2.29  0.  0.
231  2.30  0.  0.
232  2.31  0.  0.
233  2.32  0.  0.
234  2.33  0.  0.
235  2.34  0.  0.
236  2.35  0.  0.
237  2.36  0.  0.
238  2.37  0.  0.
239  2.38  0.  0.
240  2.39  0.  0.
241  2.40  0.  0.
242  2.41  0.  0.
243  2.42  0.  0.
244  2.43  0.  0.
245  2.44  0.  0.
246  2.45  0.  0.
247  2.46  0.  0.
248  2.47  0.  0.
249  2.48  0.  0.
250  2.49  0.  0.
251  2.50  0.  0.
252  2.51  0.  0.
253  2.52  0.  0.
254  2.53  0.  0.
255  2.54  0.  0.
256  2.55  0.  0.
257  2.56  0.  0.
258  2.57  0.  0.
259  2.58  0.  0.
260  2.59  0.  0.
261  2.60  0.  0.
262  2.61  0.  0.
263  2.62  0.  0.
264  2.63  0.  0.
265  2.64  0.  0.
266  2.65  0.  0.
267  2.66  0.  0.
268  2.67  0.  0.
269  2.68  0.  0.
270  2.69  0.  0.
271  2.70  0.  0.
272  2.71  0.  0.
273  2.72  0.  0.
274  2.73  0.  0.
275  2.74  0.  0.
276  2.75  0.  0.
277  2.76  0.  0.
278  2.77  0.  0.
279  2.78  0.  0.
280  2.79  0.  0.
281  2.80  0.  0.
282  2.81  0.  0.
283  2.82  0.  0.
284  2.83  0.  0.
285  2.84  0.  0.
286  2.85  0.  0.
287  2.86  0.  0.
288  2.87  0.  0.
289  2.88  0.  0.
290  2.89  0.  0.
291  2.90  0.  0.
292  2.91  0.  0.
293  2.92  0.  0.
294  2.93  0.  0.
295  2.94  0.  0.
296  2.95  0.  0.
297  2.96  0.  0.
298  2.97  0.  0.
299  2.98  0.  0.
300  2.99  0.  0.
301  3.00  0.  0.
302  3.01  0.  0.
303  3.02  0.  0.
304  3.03  0.  0.
305  3.04  0.  0.
306  3.05  0.  0.
307  3.06  0.  0.
308  3.07  0.  0.
309  3.08  0.  0.
310  3.09  0.  0.
311  3.10  0.  0.
312  3.11  0.  0.
313  3.12  0.  0.
314  3.13  0.  0.
315  3.14  0.  0.
316  3.15  0.  0.
317  3.16  0.  0.
318  3.17  0.  0.
319  3.18  0.  0.
320  3.19  0.  0.
321  3.20  0.  0.
322  3.21  0.  0.
323  3.22  0.  0.
324  3.23  0.  0.
325  3.24  0.  0.
326  3.25  0.  0.
327  3.26  0.  0.
328  3.27  0.  0.
329  3.28  0.  0.
330  3.29  0.  0.
331  3.30  0.  0.
332  3.31  0.  0.
333  3.32  0.  0.
334  3.33  0.  0.
335  3.34  0.  0.
336  3.35  0.  0.
337  3.36  0.  0.
338  3.37  0.  0.
339  3.38  0.  0.
340  3.39  0.  0.
341  3.40  0.  0.
342  3.41  0.  0.
343  3.42  0.  0.
344  3.43  0.  0.
345  3.44  0.  0.
346  3.45  0.  0.
347  3.46  0.  0.
348  3.47  0.  0.
349  3.48  0.  0.
350  3.49  0.  0.
351  3.50  0.  0.
352  3.51  0.  0.
353  3.52  0.  0.
354  3.53  0.  0.
355  3.54  0.  0.
356  3.55  0.  0.
357  3.56  0.  0.
358  3.57  0.  0.
359  3.58  0.  0.
360  3.59  0.  0.
361  3.60  0.  0.
362  3.61  0.  0.
363  3.62  0.  0.
364  3.63  0.  0.
365  3.64  0.  0.
366  3.65  0.  0.
367  3.66  0.  0.
368  3.67  0.  0.
369  3.68  0.  0.
370  3.69  0.  0.
371  3.70  0.  0.
372  3.71  0.  0.
373  3.72  0.  0.
374  3.73  0.  0.
375  3.74  0.  0.
376  3.75  0.  0.
377  3.76  0.  0.
378  3.77  0.  0.
379  3.78  0.  0.
380  3.79  0.  0.
381  3.80  0.  0.
382  3.81  0.  0.
383  3.82  0.  0.
384  3.83  0.  0.
385  3.84  0.  0.
386  3.85  0.  0.
387  3.86  0.  0.
388  3.87  0.  0.
389  3.88  0.  0.
390  3.89  0.  0.
391  3.90  0.  0.
392  3.91  0.  0.
393  3.92  0.  0.
394  3.93  0.  0.
395  3.94  0.  0.
396  3.95  0.  0.
397  3.96  0.  0.
398  3.97  0.  0.
399  3.98  0.  0.
400  3.99  0.  0.
401  4.00  0.  0.
402  4.01  0.  0.
403  4.02  0.  0.
404  4.03  0.  0.
405  4.04  0.  0.
406  4.05  0.  0.
407  4.06  0.  0.
408  4.07  0.  0.
409  4.08  0.  0.
410  4.09  0.  0.
411  4.10  0.  0.
412  4.11  0.  0.
413  4.12  0.  0.
414  4.13  0.  0.
415  4.14  0.  0.
416  4.15  0.  0.
417  4.16  0.  0.
418  4.17  0.  0.
419  4.18  0.  0.
420  4.19  0.  0.
421  4.20  0.  0.
422  4.21  0.  0.
423  4.22  0.  0.
424  4.23  0.  0.
425  4.24  0.  0.
426  4.25  0.  0.
427  4.26  0.  0.
428  4.27  0.  0.
429  4.28  0.  0.
430  4.29  0.  0.
431  4.30  0.  0.
432  4.31  0.  0.
433  4.32  0.  0.
434  4.33  0.  0.
435  4.34  0.  0.
436  4.35  0.  0.
437  4.36  0.  0.
438  4.37  0.  0.
439  4.38  0.  0.
440  4.39  0.  0.
441  4.40  0.  0.
442  4.41  0.  0.
443  4.42  0.  0.
444  4.43  0.  0.
445  4.44  0.  0.
446  4.45  0.  0.
447  4.46  0.  0.
448  4.47  0.  0.
449  4.48  0.  0.
450  4.49  0.  0.
451  4.50  0.  0.
452  4.51  0.  0.
453  4.52  0.  0.
454  4.53  0.  0.
455  4.54  0.  0.
456  4.55  0.  0.
457  4.56  0.  0.
458  4.57  0.  0.
459  4.58  0.  0.
460  4.59  0.  0.
461  4.60  0.  0.
462  4.61  0.  0.
463  4.62  0.  0.
464  4.63  0.  0.
465  4.64  0.  0.
466  4.65  0.  0.
467  4.66  0.  0.
468  4.67  0.  0.
469  4.68  0.  0.
470  4.69  0.  0.
471  4.70  0.  0.
472  4.71  0.  0.
473  4.72  0.  0.
474  4.73  0.  0.
475  4.74  0.  0.
476  4.75  0.  0.
477  4.76  0.  0.
478  4.77  0.  0.
479  4.78  0.  0.
480  4.79  0.  0.
481  4.80  0.  0.
482  4.81  0.  0.
483  4.82  0.  0.
484  4.83  0.  0.
485  4.84  0.  0.
486  4.85  0.  0.
487  4.86  0.  0.
488  4.87  0.  0.
489  4.88  0.  0.
490  4.89  0.  0.
491  4.90  0.  0.
492  4.91  0.  0.
493  4.92  0.  0.
494  4.93  0.  0.
495  4.94  0.  0.
496  4.95  0.  0.
497  4.96  0.  0.
498  4.97  0.  0.
499  4.98  0.  0.
500  4.99  0.  0.
501  5.00  0.  0.
502  5.01  0.  0.
503  5.02  0.  0.
504  5.03  0.  0.
505  5.04  0.  0.
506  5.05  0.  0.
507  5.06  0.  0.
508  5.07  0.  0.
509  5.08  0.  0.
510  5.09  0.  0.
511  5.10  0.  0.
512  5.11  0.  0.
513  5.12  0.  0.
514  5.13  0.  0.
515  5.14  0.  0.
516  5.15  0.  0.
517  5.16  0.  0.
518  5.17  0.  0.
519  5.18  0.  0.
520  5.19  0.  0.
521  5.20  0.  0.
522  5.21  0.  0.
523  5.22  0.  0.
524  5.23  0.  0.
525  5.24  0.  0.
526  5.25  0.  0.
527  5.26  0.  0.
528  5.27  0.  0.
529  5.28  0.  0.
530  5.29  0.  0.
531  5.30  0.  0.
532  5.31  0.  0.
533  5.32  0.  0.
534  5.33  0.  0.
535  5.34  0.  0.
536  5.35  0.  0.
537  5.36  0.  0.
538  5.37  0.  0.
539  5.38  0.  0.
540  5.39  0.  0.
541  5.40  0.  0.
542  5.41  0.  0.
543  5.42  0.  0.
544  5.43  0.  0.
545  5.44  0.  0.
546  5.45  0.  0.
547  5.46  0.  0.
548  5.47  0.  0.
549  5.48  0.  0.
550  5.49  0.  0.
551  5.50  0.  0.
552  5.51  0.  0.
553  5.52  0.  0.
554  5.53  0.  0.
555  5.54  0.  0.
556  5.55  0.  0.
557  5.56  0.  0.
558  5.57  0.  0.
559  5.58  0.  0.
560  5.59  0.  0.
561  5.60  0.  0.
562  5.61  0.  0.
563  5.62  0.  0.
564  5.63  0.  0.
565  5.64  0.  0.
566  5.65  0.  0.
567  5.66  0.  0.
568  5.67  0.  0.
569  5.68  0.  0.
570  5.69  0.  0.
571  5.70  0.  0.
572  5.71  0.  0.
573  5.72  0.  0.
574  5.73  0.  0.
575  5.74  0.  0.
576  5.75  0.  0.
577  5.76  0.  0.
578  5.77  0.  0.
579  5.78  0.  0.
580  5.79  0.  0.
581  5.80  0.  0.
582  5.81  0.  0.
583  5.82  0.  0.
584  5.83  0.  0.
585  5.84  0.  0.
586  5.85  0.  0.
587  5.86  0.  0.
588  5.87  0.  0.
589  5.88  0.  0.
590  5.89  0.  0.
591  5.90  0.  0.
592  5.91  0.  0.
593  5.92  0.  0.
594  5.93  0.  0.
595  5.94  0.  0.
596  5.95  0.  0.
597  5.96  0.  0.
598  5.97  0.  0.
599  5.98  0.  0.
600  5.99  0.  0.
1                         4.7635403641857E+00  1.2682707157367E+00
1  0.0000000000000E+00  1.7382210518169E-08 -4.4822058259397E-08
2  1.0000000000000E-02  1.4426888075232E-03 -1.8250294524066E-03
3  2.0000000000000E-02  5.7466981593272E-03 -7.2415458921439E-03
4  3.0000000000000E-02  1.2840360968020E-02 -1.6075129604211E-02
5  4.0000000000000E-02  2.2605902229198E-02 -2.8039374696368E-02
6  5.0000000000000E-02  3.4881908473428E-02 -4.2742237349045E-02
7  6.0000000000000E-02  4.9466714205521E-02 -5.9694740837979E-02
8  7.0000000000000E-02  6.6122636217952E-02 -7.8321859131543E-02
9  8.0000000000000E-02  8.4580969283013E-02 -9.7975356042682E-02
10  9.0000000000000E-02  1.0454764105615E-01 -1.1794831649922E-01
11  1.0000000000000E-01  1.2570941037288E-01 -1.3749107129027E-01
12  1.1000000000000E-01  1.4774048176630E-01 -1.5582818735258E-01
13  1.2000000000000E-01  1.7030940019973E-01 -1.7217617286770E-01
14  1.3000000000000E-01  1.9308608387928E-01 -1.8576153061158E-01
15  1.4000000000000E-01  2.1574884971109E-01 -1.9583878446135E-01
16  1.5000000000000E-01  2.3799128557058E-01 -2.0170810290575E-01
17  1.6000000000000E-01  2.5952882607133E-01 -2.0273214986819E-01
18  1.7000000000000E-01  2.8010489391973E-01 -1.9835180703046E-01
19  1.8000000000000E-01  2.9949647712001E-01 -1.8810043289023E-01
20  1.9000000000000E-01  3.1751902310214E-01 -1.7161635160838E-01
21  2.0000000000000E-01  3.3403054407909E-01 -1.4865329877949E-01
22  2.1000000000000E-01  3.4893484334809E-01 -1.1908859094407E-01
23  2.2000000000000E-01  3.6218378954032E-01 -8.2928830196893E-02
24  2.3000000000000E-01  3.7377858466045E-01 -4.0313003776917E-02
25  2.4000000000000E-01  3.8376999177976E-01  8.4871098857364E-03
26  2.5000000000000E-01  3.9225750906505E-01  6.3069263541305E-02
27  2.6000000000000E-01  3.9938749803473E-01  1.2290577212182E-01
28  2.7000000000000E-01  4.0535029511856E-01  1.8735117797426E-01
29  2.8000000000000E-01  4.1037635634106E-01  2.5565242244462E-01
30  2.9000000000000E-01  4.1473150484169E-01  3.2696134463341E-01
31  3.0000000000000E-01  4.1871136958988E-01  4.0034928004801E-01
32  3.1000000000000E-01  4.2263512067763E-01  4.7482348794873E-01
33  3.2000000000000E-01  4.2683862163126E-01  5.4934509731102E-01
34  3.3000000000000E-01  4.3166713196869E-01  6.2284822830038E-01
35  3.4000000000000E-01  4.3746770347370E-01  6.9425991966492E-01
36  3.5000000000000E-01  4.4458142114528E-01  7.6252047305641E-01
37  3.6000000000000E-01  4.5333564434209E-01  8.2660381342275E-01
38  3.7000000000000E-01  4.6403640516826E-01  8.8553746055904E-01
39  3.8000000000000E-01  4.7696111958598E-01  9.3842171079701E-01
40  3.9000000000000E-01  4.9235176209732E-01  9.8444763963605E-01
41  4.0000000000000E-01  5.1040864718170E-01  1.0229135557034E+00
42  4.1000000000000E-01  5.3128495012981E-01  1.0532395634528E+00
43  4.2000000000000E-01  5.5508208666366E-01  1.0749799260021E+00
44  4.3000000000000E-01  5.8184605501098E-01  1.0878329598642E+00
45  4.4000000000000E-01  6.1156482619671E-01  1.0916482393027E+00
46  4.5000000000000E-01  6.4416684855528E-01  1.0864309388063E+00
47  4.6000000000000E-01  6.7952071122300E-01  1.0723431967560E+00
48  4.7000000000000E-01  7.1743598904127E-01  1.0497024407489E+00
49  4.8000000000000E-01  7.5766526831271E-01  1.0189766741319E+00
50  4.9000000000000E-01  7.9990732964486E-01  9.8077678296063E-01
51  5.0000000000000E-01  8.4381144113870E-01  9.3584598168152E-01
52  5.1000000000000E-01  8.8898269287979E-01  8.8504657317636E-01
53  5.2000000000000E-01  9.3498828250793E-01  8.2934425328806E-01
54  5.3000000000000E-01  9.8136464199760E-01  7.6979024047444E-01
55  5.4000000000000E-01  1.0276252780713E+00  7.0750155679825E-01
56  5.5000000000000E-01  1.0732691832535E+00  6.4363982612646E-01
57  5.6000000000000E-01  1.1177896617734E+00  5.7938898835548E-01
58  5.7000000000000E-01  1.1606834046141E+00  5.1593235399782E-01
59  5.8000000000000E-01  1.2014596412042E+00  4.5442944099643E-01
60  5.9000000000000E-01  1.2396491917153E+00  3.9599304475661E-01
61  6.0000000000000E-01  1.2748132437659E+00  3.4166699284530E-01
62  6.1000000000000E-01  1.3065516805830E+00  2.9240502750862E-01
63  6.2000000000000E-01  1.3345107942895E+00  2.4905124217557E-01
64  6.3000000000000E-01  1.3583902279012E+00  2.1232247269022E-01
65  6.4000000000000E-01  1.3779490026481E+00  1.8279301055307E-01
66  6.5000000000000E-01  1.3930105031761E+00  1.6088196452055E-01
67  6.6000000000000E-01  1.4034663117590E+00  1.4684354922434E-01
68  6.7000000000000E-01  1.4092788035161E+00  1.4076052587849E-01
69  6.8000000000000E-01  1.4104824374219E+00  1.4254096161885E-01
70  6.9000000000000E-01  1.4071837021836E+00  1.5191841164023E-01
71  7.0000000000000E-01  1.3995597014038E+00  1.6845556322424E-01
72  7.1000000000000E-01  1.3878553883595E+00  1.9155131421132E-01
73  7.2000000000000E-01  1.3723794867263E+00  2.2045119172709E-01
74  7.3000000000000E-01  1.3534991591590E+00  2.5426095130449E-01
75  7.4000000000000E-01  1.3316335103123E+00  2.9196313323088E-01
76  7.5000000000000E-01  1.3072460341644E+00  3.3243629321780E-01
77  7.6000000000000E-01  1.2808361369395E+00  3.7447656953870E-01
78  7.7000000000000E-01  1.2529298860704E+00  4.1682119970084E-01
79  7.8000000000000E-01  1.2240701521256E+00  4.5817355751177E-01
80  7.9000000000000E-01  1.1948063240940E+00  4.9722924695112E-01
81  8.0000000000000E-01  1.1656837885939E+00  5.3270276330013E-01
82  8.1000000000000E-01  1.1372333702190E+00  5.6335421509626E-01
83  8.2000000000000E-01  1.1099609331991E+00  5.8801559308401E-01
84  8.3000000000000E-01  1.0843373437385E+00  6.0561607466076E-01
85  8.4000000000000E-01  1.0607889877793E+00  6.1520586442045E-01
86  8.5000000000000E-01  1.0396890305816E+00  6.1597809314470E-01
87  8.6000000000000E-01  1.0213495925269E+00  6.0728832865920E-01
88  8.7000000000000E-01  1.0060150001421E+00  5.8867129186308E-01
89  8.8000000000000E-01  9.9385625276337E-01  5.5985441927587E-01
90  8.9000000000000E-01  9.8496682383746E-01  5.2076796879475E-01
91  9.0000000000000E-01  9.7935989197571E-01  4.7155142703089E-01
92  9.1000000000000E-01  9.7696707096284E-01  4.1255604348937E-01
93  9.2000000000000E-01  9.7763868045134E-01  3.4434338774557E-01
94  9.3000000000000E-01  9.8114557055267E-01  2.6767989935230E-01
95  9.4000000000000E-01  9.8718248449782E-01  1.8352747510984E-01
96  9.5000000000000E-01  9.9537291452663E-01  9.3030213150386E-02
97  9.6000000000000E-01  1.0052753777306E+00 -2.5024934006676E-03
98  9.7000000000000E-01  1.0163910112550E+00 -1.0161625000290E-01
99  9.8000000000000E-01  1.0281723605872E+00 -2.0273501215847E-01
100  9.9000000000000E-01  1.0400332111249E+00 -3.0418710475047E-01
101  1.0000000000000E+00  1.0513592922786E+00 -4.0423346534076E-01
102  1.0100000000000E+00  1.0615196654440E+00 -5.0109762135811E-01
103  1.0200000000000E+00  1.0698785926205E+00 -5.9299687366620E-01
104  1.0300000000000E+00  1.0758076715839E+00 -6.7817413105201E-01
105  1.0400000000000E+00  1.0786980165313E+00 -7.5492982227289E-01
106  1.0500000000000E+00  1.0779722602018E+00 -8.2165330488601E-01
107  1.0600000000000E+00  1.0730961546895E+00 -8.7685319335280E-01
108  1.0700000000000E+00  1.0635895535229E+00 -9.1918604285598E-01
109  1.0800000000000E+00  1.0490365670264E+00 -9.4748284977425E-01
110  1.0900000000000E+00  1.0290946962941E+00 -9.6077286425353E-01
111  1.1000000000000E+00  1.0035027681834E+00 -9.5830425454007E-01
112  1.1100000000000E+00  9.7208751411190E-01 -9.3956121547610E-01
113  1.1200000000000E+00  9.3476865895015E-01 -9.0427717440657E-01
114  1.1300000000000E+00  8.9156241232354E-01 -8.5244381507566E-01
115  1.1400000000000E+00  8.4258328289053E-01 -7.8431571321581E-01
116  1.1500000000000E+00  7.8804416595300E-01 -7.0041045462730E-01
117  1.1600000000000E+00  7.2825468572847E-01 -6.0150418673117E-01
118  1.1700000000000E+00  6.6361780497524E-01 -4.8862263578312E-01
119  1.1800000000000E+00  5.9462474613421E-01 -3.6302770346285E-01
120  1.1900000000000E+00  5.2184829875586E-01 -2.2619983586585E-01
121  1.2000000000000E+00  4.4593461765685E-01 -7.9816434880498E-02
122  1.2100000000000E+00  3.6759364388312E-01  7.4273346355244E-02
123  1.2200000000000E+00  2.8758830617566E-01  2.3407701566368E-01
124  1.2300000000000E+00  2.0672268335611E-01  3.9748989433418E-01
125  1.2400000000000E+00  1.2582932764976E-01  5.6232849145497E-01
126  1.2500000000000E+00  4.5755965100606E-02  7.2636553938996E-01
127  1.2600000000000E+00 -3.2648198561767E-02  8.8736609762287E-01
128  1.2700000000000E+00 -1.0854632999814E-01  1.0431241102700E+00
129  1.2800000000000E+00 -1.8112773769403E-01  1.1914987916108E+00
130  1.2900000000000E+00 -2.4962131844935E-01  1.3304502139974E+00
131  1.3000000000000E+00 -3.1330844519066E-01  1.4580734835395E+00
132  1.3100000000000E+00 -3.7153506917586E-01  1.5726309108962E+00
133  1.3200000000000E+00 -4.2372282248173E-01  1.6725816167676E+00