Pr    ONCVPSP-4.0.1  r_core=   2.01067   1.60183   1.90528   1.35479
59.0000     13.0000      241104    zatom,zion,pspd
8      11   3     4   600     0    pspcod,pspxc,lmax,lloc,mmax,r2well
5.99000000  4.00000000  0.00000000    rchrg fchrg qchrg
3     2     2     2     0    nproj
1     1           extension_switch
0                         1.3166550723167E+01  3.9053216807998E+00  8.8274045171446E-01
1  0.0000000000000E+00 -2.4601950476821E-09  4.4350007555316E-09 -3.5485155647219E-09
2  1.0000000000000E-02  5.4863860969382E-02 -3.9495076907144E-02  3.1450110783182E-02
3  2.0000000000000E-02  1.0939885261469E-01 -7.8399243147854E-02  6.2429864181546E-02
4  3.0000000000000E-02  1.6328023180680E-01 -1.1612923544941E-01  9.2475096877297E-02
5  4.0000000000000E-02  2.1619145555016E-01 -1.5211699002325E-01  1.2113395682266E-01
6  5.0000000000000E-02  2.6782815104231E-01 -1.8581700519003E-01  1.4797286762767E-01
7  6.0000000000000E-02  3.1790193149004E-01 -2.1671342264669E-01  1.7258226599659E-01
8  7.0000000000000E-02  3.6614400918949E-01 -2.4432673885472E-01  1.9458204077464E-01
9  8.0000000000000E-02  4.1230855983701E-01 -2.6822006246412E-01  2.1362660571503E-01
10  9.0000000000000E-02  4.5617579506048E-01 -2.8800483913707E-01  2.2940954243777E-01
11  1.0000000000000E-01  4.9755470370922E-01 -3.0334597153439E-01  2.4166775517454E-01
12  1.1000000000000E-01  5.3628542647492E-01 -3.1396626950611E-01  2.5018508472185E-01
13  1.2000000000000E-01  5.7224123288938E-01 -3.1965017359832E-01  2.5479533549093E-01
14  1.3000000000000E-01  6.0533007460492E-01 -3.2024670376137E-01  2.5538467657406E-01
15  1.4000000000000E-01  6.3549569405363E-01 -3.1567159451766E-01  2.5189338526341E-01
16  1.5000000000000E-01  6.6271827304154E-01 -3.0590858771069E-01  2.4431690937307E-01
17  1.6000000000000E-01  6.8701461149944E-01 -2.9100986419860E-01  2.3270623293862E-01
18  1.7000000000000E-01  7.0843783241620E-01 -2.7109560635399E-01  2.1716753830476E-01
19  1.8000000000000E-01  7.2707661485441E-01 -2.4635269386375E-01  1.9786116616296E-01
20  1.9000000000000E-01  7.4305396282389E-01 -2.1703254596676E-01  1.7499988367042E-01
21  2.0000000000000E-01  7.5652552359147E-01 -1.8344813378962E-01  1.4884647926306E-01
22  2.1000000000000E-01  7.6767747467186E-01 -1.4597019672705E-01  1.1971071107667E-01
23  2.2000000000000E-01  7.7672400419888E-01 -1.0502270672817E-01  8.7945643904776E-02
24  2.3000000000000E-01  7.8390441455841E-01 -6.1077633784045E-02  5.3943417260069E-02
25  2.4000000000000E-01  7.8947988400490E-01 -1.4649074741982E-02  1.8130494271519E-02
26  2.5000000000000E-01  7.9372992542595E-01  3.3713184305327E-02 -1.9037552243203E-02
27  2.6000000000000E-01  7.9694858540521E-01  8.3430594497274E-02 -5.7081654224964E-02
28  2.7000000000000E-01  7.9944043021376E-01  1.3390317558235E-01 -9.5505195783391E-02
29  2.8000000000000E-01  8.0151636828653E-01  1.8451716280765E-01 -1.3380022154773E-01
30  2.9000000000000E-01  8.0348936107548E-01  2.3465287557027E-01 -1.7145383031014E-01
31  3.0000000000000E-01  8.0567007588272E-01  2.8369271083391E-01 -2.0795467557962E-01
32  3.1000000000000E-01  8.0836253533621E-01  3.3102916223573E-01 -2.4279949286371E-01
33  3.2000000000000E-01  8.1185981856520E-01  3.7607276492492E-01 -2.7549957265158E-01
34  3.3000000000000E-01  8.1643986884712E-01  4.1825986651239E-01 -3.0558709820897E-01
35  3.4000000000000E-01  8.2236146153328E-01  4.5706012607143E-01 -3.3262126841620E-01
36  3.5000000000000E-01  8.2986038442365E-01  4.9198364590253E-01 -3.5619412797982E-01
37  3.6000000000000E-01  8.3914588046509E-01  5.2258764473914E-01 -3.7593603041084E-01
38  3.7000000000000E-01  8.5039739971426E-01  5.4848258618755E-01 -3.9152066316036E-01
39  3.8000000000000E-01  8.6376170397011E-01  5.6933768240446E-01 -4.0266956919298E-01
40  3.9000000000000E-01  8.7935036337742E-01  5.8488570025872E-01 -4.0915610501177E-01
41  4.0000000000000E-01  8.9723767967758E-01  5.9492700541722E-01 -4.1080878166397E-01
42  4.1000000000000E-01  9.1745906569287E-01  5.9933278884081E-01 -4.0751394247699E-01
43  4.2000000000000E-01  9.4000990512756E-01  5.9804742998232E-01 -3.9921773912811E-01
44  4.3000000000000E-01  9.6484491093016E-01  5.9108996140877E-01 -3.8592737603127E-01
45  4.4000000000000E-01  9.9187799434023E-01  5.7855461052905E-01 -3.6771160185704E-01
46  4.5000000000000E-01  1.0209826504314E+00  5.6061040543255E-01 -3.4470043615549E-01
47  4.6000000000000E-01  1.0519928595246E+00  5.3749984342158E-01 -3.1708412843933E-01
48  4.7000000000000E-01  1.0847044973687E+00  5.0953663249049E-01 -2.8511135657770E-01
49  4.8000000000000E-01  1.1188772405495E+00  4.7710252763365E-01 -2.4908668084197E-01
50  4.9000000000000E-01  1.1542369472730E+00  4.4064329529497E-01 -2.0936727930833E-01
51  5.0000000000000E-01  1.1904784875616E+00  4.0066385036574E-01 -1.6635899944485E-01
52  5.1000000000000E-01  1.2272689910732E+00  3.5772262075115E-01 -1.2051176947881E-01
53  5.2000000000000E-01  1.2642514752901E+00  3.1242520450936E-01 -7.2314421428126E-02
54  5.3000000000000E-01  1.3010488117929E+00  2.6541739380984E-01 -2.2288985401898E-02
55  5.4000000000000E-01  1.3372679838079E+00  2.1737764830489E-01  2.9015478201741E-02
56  5.5000000000000E-01  1.3725045842529E+00  1.6900910787929E-01  8.1029435712262E-02
57  5.6000000000000E-01  1.4063475001664E+00  1.2103124100568E-01  1.3316974814405E-01
58  5.7000000000000E-01  1.4383837267364E+00  7.4171230017492E-02  1.8484676736978E-01
59  5.8000000000000E-01  1.4682032521831E+00  2.9155198431690E-02  2.3547157434225E-01
60  5.9000000000000E-01  1.4954039535378E+00 -1.3300612044620E-02  2.8446327081106E-01
61  6.0000000000000E-01  1.5195964429025E+00 -5.2498606050313E-02  3.3125623469270E-01
62  6.1000000000000E-01  1.5404088041038E+00 -8.7768432126155E-02  3.7530724909004E-01
63  6.2000000000000E-01  1.5574911607554E+00 -1.1847530640893E-01  4.1610241592718E-01
64  6.3000000000000E-01  1.5705200186150E+00 -1.4402795861077E-01  4.5316376727117E-01
65  6.4000000000000E-01  1.5792023277470E+00 -1.6388610080782E-01  4.8605549062835E-01
66  6.5000000000000E-01  1.5832792133445E+00 -1.7756732524610E-01  5.1438968880301E-01
67  6.6000000000000E-01  1.5825293280911E+00 -1.8465334429064E-01  5.3783160023649E-01
68  6.7000000000000E-01  1.5767717836023E+00 -1.8479549371702E-01  5.5610421204975E-01
69  6.8000000000000E-01  1.5658686237191E+00 -1.7771942966525E-01  5.6899220520912E-01
70  6.9000000000000E-01  1.5497268081653E+00 -1.6322895963629E-01  5.7634517924361E-01
71  7.0000000000000E-01  1.5282996812540E+00 -1.4120895877175E-01  5.7808011265395E-01
72  7.1000000000000E-01  1.5015879068555E+00 -1.1162733418552E-01  5.7418302446773E-01
73  7.2000000000000E-01  1.4696398576227E+00 -7.4536012148552E-02  5.6470981218254E-01
74  7.3000000000000E-01  1.4325514534403E+00 -3.0070935315272E-02  5.4978625148395E-01
75  7.4000000000000E-01  1.3904654511008E+00  2.1548930256002E-02  5.2960715348536E-01
76  7.5000000000000E-01  1.3435701942360E+00  8.0023565960774E-02  5.0443468568125E-01
77  7.6000000000000E-01  1.2920978394473E+00  1.4497482463526E-01  4.7459587320161E-01
78  7.7000000000000E-01  1.2363220812726E+00  2.1595027084821E-01  4.4047930714834E-01
79  7.8000000000000E-01  1.1765554050289E+00  2.9242788908182E-01  4.0253109667266E-01
80  7.9000000000000E-01  1.1131459025723E+00  3.7382160046748E-01  3.6125011086065E-01
81  8.0000000000000E-01  1.0464736915410E+00  4.5948751862623E-01  3.1718256532612E-01
82  8.1000000000000E-01  9.7694698361546E-01  5.4873086601156E-01  2.7091601653021E-01
83  8.2000000000000E-01  9.0499785167320E-01  6.4081346406729E-01  2.2307283416996E-01
84  8.3000000000000E-01  8.3107774936605E-01  7.3496170363690E-01  1.7430322838115E-01
85  8.4000000000000E-01  7.5565283956045E-01  8.3037489645952E-01  1.2527791392590E-01
86  8.5000000000000E-01  6.7919919021032E-01  9.2623390435975E-01  7.6680497895777E-02
87  8.6000000000000E-01  6.0219789755072E-01  1.0217099399249E+00  2.9199680714067E-02
88  8.7000000000000E-01  5.2513019698949E-01  1.1159734311057E+00 -1.6478637673507E-02
89  8.8000000000000E-01  4.4847262172594E-01  1.2082028422905E+00 -5.9679253597260E-02
90  8.9000000000000E-01  3.7269226795605E-01  1.2975933459639E+00 -9.9745464855586E-02
91  9.0000000000000E-01  2.9824222353966E-01  1.3833652420600E+00 -1.3604669409733E-01
92  9.1000000000000E-01  2.2555721425163E-01  1.4647720264805E+00 -1.6798584169708E-01
93  9.2000000000000E-01  1.5504951825123E-01  1.5411080159090E+00 -1.9500628301010E-01
94  9.3000000000000E-01  8.7105195242710E-02  1.6117154429154E+00 -2.1659842948433E-01
95  9.4000000000000E-01  2.2080672026171E-02  1.6759909432912E+00 -2.3230577863070E-01
96  9.5000000000000E-01 -3.9700279165424E-02  1.7333913664630E+00 -2.4173038420895E-01
97  9.6000000000000E-01 -9.7949138907780E-02  1.7834388495472E+00 -2.4453768508497E-01
98  9.7000000000000E-01 -1.5241479088334E-01  1.8257251059788E+00 -2.4046063892766E-01
99  9.8000000000000E-01 -2.0288520609657E-01  1.8599148905020E+00 -2.2930311513388E-01
100  9.9000000000000E-01 -2.4918864941167E-01  1.8857486134842E+00 -2.1094250996767E-01
101  1.0000000000000E+00 -2.9119440342066E-01  1.9030440888077E+00 -1.8533155574373E-01
102  1.0100000000000E+00 -3.2881301121392E-01  1.9116974108605E+00 -1.5249930485957E-01
103  1.0200000000000E+00 -3.6199604604408E-01  1.9116829671777E+00 -1.1255127845747E-01
104  1.0300000000000E+00 -3.9073542204619E-01  1.9030526039326E+00 -6.5668778353648E-02
105  1.0400000000000E+00 -4.1506226601075E-01  1.8859339715631E+00 -1.2107369509860E-02
106  1.0500000000000E+00 -4.3504537561713E-01  1.8605280872119E+00  4.7805451352573E-02
107  1.0600000000000E+00 -4.5078929442465E-01  1.8271061591986E+00  1.1367337748834E-01
108  1.0700000000000E+00 -4.6243203823756E-01  1.7860057263342E+00  1.8503517324809E-01
109  1.0800000000000E+00 -4.7014251112969E-01  1.7376261714261E+00  2.6136927667861E-01
110  1.0900000000000E+00 -4.7411765238604E-01  1.6824236737157E+00  3.4209907931198E-01
111  1.1000000000000E+00 -4.7457935786933E-01  1.6209056692246E+00  4.2659883297583E-01
112  1.1100000000000E+00 -4.7177122079862E-01  1.5536248909905E+00  5.1420012813946E-01
113  1.1200000000000E+00 -4.6595513765435E-01  1.4811730629938E+00  6.0419888342329E-01
114  1.1300000000000E+00 -4.5740782488006E-01  1.4041743222119E+00  6.9586278143925E-01
115  1.1400000000000E+00 -4.4641729127113E-01  1.3232784427733E+00  7.8843908193611E-01
116  1.1500000000000E+00 -4.3327930945632E-01  1.2391539346955E+00  8.8116273920543E-01
117  1.1600000000000E+00 -4.1829392773420E-01  1.1524810873084E+00  9.7326474666775E-01
118  1.1700000000000E+00 -4.0176206081014E-01  1.0639450243480E+00  1.0639806273410E+00
119  1.1800000000000E+00 -3.8398219474031E-01  9.7422883401929E-01  1.1525589842386E+00
120  1.1900000000000E+00 -3.6524723777650E-01  8.8400683332174E-01  1.2382700194606E+00
121  1.2000000000000E+00 -3.4584154486892E-01  7.9393802180631E-01  1.3204139244538E+00
122  1.2100000000000E+00 -3.2603813953113E-01  7.0465977602382E-01  1.3983290364543E+00
123  1.2200000000000E+00 -3.0609615267121E-01  6.1678183247905E-01  1.4713996469960E+00
124  1.2300000000000E+00 -2.8625849407191E-01  5.3088060431755E-01  1.5390633373315E+00
125  1.2400000000000E+00 -2.6674976860645E-01  4.4749387557214E-01  1.6008177022502E+00
126  1.2500000000000E+00 -2.4777444619638E-01  3.6711591701504E-01  1.6562263075489E+00
127  1.2600000000000E+00 -2.2951529219950E-01  2.9019306991241E-01  1.7049237071073E+00
128  1.2700000000000E+00 -2.1213206354925E-01  2.1711984874261E-01  1.7466193224152E+00
129  1.2800000000000E+00 -1.9576047583776E-01  1.4823562175105E-01  1.7810999600654E+00
130  1.2900000000000E+00 -1.8051144788495E-01  8.3821939523079E-02  1.8082307107958E+00
131  1.3000000000000E+00 -1.6647063347891E-01  2.4100597270486E-02  1.8279539362416E+00
132  1.3100000000000E+00 -1.5369825522649E-01 -3.0767463179711E-02  1.8402860062224E+00
133  1.3200000000000E+00 -1.4222926313819E-01 -8.0682280009328E-02  1.8453113995519E+00
134  1.3300000000000E+00 -1.3207385105794E-01 -1.2560386310882E-01  1.8431737242364E+00
135  1.3400000000000E+00 -1.2321837793180E-01 -1.6554984735921E-01  1.8340631348083E+00
136  1.3500000000000E+00 -1.1562675706478E-01 -2.0059156983875E-01  1.8181997469476E+00
137  1.3600000000000E+00 -1.0924240247058E-01 -2.3084822451053E-01  1.7958116361786E+00
138  1.3700000000000E+00 -1.0399070680132E-01 -2.5648010800118E-01  1.7671287612605E+00
139  1.3800000000000E+00 -9.9781570608505E-02 -2.7768413495631E-01  1.7324151215829E+00
140  1.3900000000000E+00 -9.6511851006848E-02 -2.9468991067614E-01  1.6919805532746E+00
141  1.4000000000000E+00 -9.4067894180209E-02 -3.0775513351297E-01  1.6461760597290E+00
142  1.4100000000000E+00 -9.2328119125361E-02 -3.1716084087795E-01  1.5953893852734E+00
143  1.4200000000000E+00 -9.1165612628632E-02 -3.2320655164726E-01  1.5400402179505E+00
144  1.4300000000000E+00 -9.0450696661039E-02 -3.2620537958104E-01  1.4805752230933E+00
145  1.4400000000000E+00 -9.0053430467231E-02 -3.2647918731921E-01  1.4174629599977E+00
146  1.4500000000000E+00 -8.9846011472297E-02 -3.2435384795553E-01  1.3511887415926E+00
147  1.4600000000000E+00 -8.9705041455012E-02 -3.2015467764089E-01  1.2822494956047E+00
148  1.4700000000000E+00 -8.9513627238327E-02 -3.1420209829342E-01  1.2111486840052E+00
149  1.4800000000000E+00 -8.9163288354164E-02 -3.0680758434510E-01  1.1383913348157E+00
150  1.4900000000000E+00 -8.8555647706800E-02 -2.9826994166925E-01  1.0644792373240E+00
151  1.5000000000000E+00 -8.7603885124759E-02 -2.8887196048190E-01  9.8990634811493E-01
152  1.5100000000000E+00 -8.6233937786574E-02 -2.7887747721434E-01  9.1515445122869E-01
153  1.5200000000000E+00 -8.4385435785139E-02 -2.6852887316522E-01  8.4068911107341E-01
154  1.5300000000000E+00 -8.2012365435032E-02 -2.5804503043661E-01  7.6695595208927E-01
155  1.5400000000000E+00 -7.9083457362236E-02 -2.4761975806879E-01  6.9437729374672E-01
156  1.5500000000000E+00 -7.5582300760938E-02 -2.3742069382789E-01  6.2334916422042E-01
157  1.5600000000000E+00 -7.1507189475223E-02 -2.2758867969039E-01  5.5423871062553E-01
158  1.5700000000000E+00 -6.6870709675410E-02 -2.1823760185100E-01  4.8738201809514E-01
159  1.5800000000000E+00 -6.1699082784744E-02 -2.0945467919763E-01  4.2308234451705E-01
160  1.5900000000000E+00 -5.6031280922405E-02 -2.0130117771990E-01  3.6160877236779E-01
161  1.6000000000000E+00 -4.9917935406990E-02 -1.9381352235393E-01  3.0319527394017E-01
162  1.6100000000000E+00 -4.3420061793395E-02 -1.8700477230409E-01  2.4804018112415E-01
163  1.6200000000000E+00 -3.6607627396722E-02 -1.8086642119557E-01  1.9630604648688E-01
164  1.6300000000000E+00 -2.9557989323023E-02 -1.7537047932918E-01  1.4811987799831E-01
165  1.6400000000000E+00 -2.2354232624882E-02 -1.7047179198826E-01  1.0357372581427E-01
166  1.6500000000000E+00 -1.5083439274924E-02 -1.6611054533065E-01  6.2725596347894E-02
167  1.6600000000000E+00 -7.8349192800934E-03 -1.6221490963113E-01  2.5600665696234E-02
168  1.6700000000000E+00 -6.9843533406983E-04 -1.5870376887246E-01 -7.8072376889403E-03
169  1.6800000000000E+00  6.2375479625848E-03 -1.5548948557468E-01 -3.7533913293935E-02
170  1.6900000000000E+00  1.2887560200896E-02 -1.5248065065143E-01 -6.3642865073659E-02
171  1.7000000000000E+00  1.9170737788727E-02 -1.4958476958617E-01 -8.6223208488125E-02
172  1.7100000000000E+00  2.5012326102273E-02 -1.4671083856914E-01 -1.0538744253515E-01
173  1.7200000000000E+00  3.0345046376368E-02 -1.4377176732387E-01 -1.2126912090503E-01
174  1.7300000000000E+00  3.5110305098695E-02 -1.4068660899624E-01 -1.3402045573526E-01
175  1.7400000000000E+00  3.9259226549444E-02 -1.3738256169768E-01 -1.4380988632461E-01
176  1.7500000000000E+00  4.2753492338248E-02 -1.3379671116759E-01 -1.5081964329847E-01
177  1.7600000000000E+00  4.5565975133773E-02 -1.2987748905169E-01 -1.5524333702890E-01
178  1.7700000000000E+00  4.7681157393543E-02 -1.2558582692560E-01 -1.5728359651371E-01
179  1.7800000000000E+00  4.9095329532325E-02 -1.2089599180029E-01 -1.5714978258209E-01
180  1.7900000000000E+00  4.9816565738561E-02 -1.1579609482608E-01 -1.5505579626217E-01
181  1.8000000000000E+00  4.9864479363935E-02 -1.1028827079514E-01 -1.5121800023285E-01
182  1.8100000000000E+00  4.9269763448708E-02 -1.0438853183508E-01 -1.4585326832163E-01
183  1.8200000000000E+00  4.8073525531215E-02 -9.8126304510280E-02 -1.3917717466279E-01
184  1.8300000000000E+00  4.6326429233561E-02 -9.1543664955771E-02 -1.3140233112260E-01
185  1.8400000000000E+00  4.4087658253874E-02 -8.4694291808380E-02 -1.2273687854758E-01
186  1.8500000000000E+00  4.1423721273951E-02 -7.7642161474428E-02 -1.1338313436916E-01
187  1.8600000000000E+00  3.8407118843672E-02 -7.0460014543961E-02 -1.0353639630668E-01
188  1.8700000000000E+00  3.5114895478424E-02 -6.3227625842427E-02 -9.3383899374615E-02
189  1.8800000000000E+00  3.1627116618954E-02 -5.6029937011975E-02 -8.3103907690778E-02
190  1.8900000000000E+00  2.8025126836797E-02 -4.8954816039586E-02 -7.2865099745902E-02
191  1.9000000000000E+00  2.4390402882518E-02 -4.2091753754358E-02 -6.2825450851233E-02
192  1.9100000000000E+00  2.0801544004082E-02 -3.5527514075922E-02 -5.3133137242756E-02
193  1.9200000000000E+00  1.7316752357112E-02 -2.9318173560634E-02 -4.3942415406660E-02
194  1.9300000000000E+00  1.3991413994678E-02 -2.3518123120839E-02 -3.5393655946903E-02
195  1.9400000000000E+00  1.0902732351621E-02 -1.8220508622701E-02 -2.7586377080470E-02
196  1.9500000000000E+00  8.1165373594224E-03 -1.3503736625389E-02 -2.0611782413980E-02
197  1.9600000000000E+00  5.6885689503191E-03 -9.4338905816973E-03 -1.4550030691872E-02
198  1.9700000000000E+00  3.6627971571969E-03 -6.0622902083773E-03 -9.4707577254932E-03
199  1.9800000000000E+00  2.0711232361917E-03 -3.4252735243523E-03 -5.4349023117007E-03
200  1.9900000000000E+00  9.2656367401580E-04 -1.5330447572033E-03 -2.4774580202261E-03
201  2.0000000000000E+00  2.4647244159940E-04 -4.0850143224010E-04 -6.7571299434286E-04
202  2.0100000000000E+00  4.8592097856761E-06 -8.0443128551229E-06 -1.5266204344988E-05
203  2.0200000000000E+00 -7.2028484370769E-06  1.1985262086029E-05  2.0104766247302E-05
204  2.0300000000000E+00  4.1284856227759E-06 -6.8533296851600E-06 -1.1337312061701E-05
205  2.04 -0.  0.  0.
206  2.05  0. -0.  0.
207  2.06  0.  0.  0.
208  2.07  0.  0.  0.
209  2.08  0.  0.  0.
210  2.09  0.  0.  0.
211  2.10  0.  0.  0.
212  2.11  0.  0.  0.
213  2.12  0.  0.  0.
214  2.13  0.  0.  0.
215  2.14  0.  0.  0.
216  2.15  0.  0.  0.
217  2.16  0.  0.  0.
218  2.17  0.  0.  0.
219  2.18  0.  0.  0.
220  2.19  0.  0.  0.
221  2.20  0.  0.  0.
222  2.21  0.  0.  0.
223  2.22  0.  0.  0.
224  2.23  0.  0.  0.
225  2.24  0.  0.  0.
226  2.25  0.  0.  0.
227  2.26  0.  0.  0.
228  2.27  0.  0.  0.
229  2.28  0.  0.  0.
230  2.29  0.  0.  0.
231  2.30  0.  0.  0.
232  2.31  0.  0.  0.
233  2.32  0.  0.  0.
234  2.33  0.  0.  0.
235  2.34  0.  0.  0.
236  2.35  0.  0.  0.
237  2.36  0.  0.  0.
238  2.37  0.  0.  0.
239  2.38  0.  0.  0.
240  2.39  0.  0.  0.
241  2.40  0.  0.  0.
242  2.41  0.  0.  0.
243  2.42  0.  0.  0.
244  2.43  0.  0.  0.
245  2.44  0.  0.  0.
246  2.45  0.  0.  0.
247  2.46  0.  0.  0.
248  2.47  0.  0.  0.
249  2.48  0.  0.  0.
250  2.49  0.  0.  0.
251  2.50  0.  0.  0.
252  2.51  0.  0.  0.
253  2.52  0.  0.  0.
254  2.53  0.  0.  0.
255  2.54  0.  0.  0.
256  2.55  0.  0.  0.
257  2.56  0.  0.  0.
258  2.57  0.  0.  0.
259  2.58  0.  0.  0.
260  2.59  0.  0.  0.
261  2.60  0.  0.  0.
262  2.61  0.  0.  0.
263  2.62  0.  0.  0.
264  2.63  0.  0.  0.
265  2.64  0.  0.  0.
266  2.65  0.  0.  0.
267  2.66  0.  0.  0.
268  2.67  0.  0.  0.
269  2.68  0.  0.  0.
270  2.69  0.  0.  0.
271  2.70  0.  0.  0.
272  2.71  0.  0.  0.
273  2.72  0.  0.  0.
274  2.73  0.  0.  0.
275  2.74  0.  0.  0.
276  2.75  0.  0.  0.
277  2.76  0.  0.  0.
278  2.77  0.  0.  0.
279  2.78  0.  0.  0.
280  2.79  0.  0.  0.
281  2.80  0.  0.  0.
282  2.81  0.  0.  0.
283  2.82  0.  0.  0.
284  2.83  0.  0.  0.
285  2.84  0.  0.  0.
286  2.85  0.  0.  0.
287  2.86  0.  0.  0.
288  2.87  0.  0.  0.
289  2.88  0.  0.  0.
290  2.89  0.  0.  0.
291  2.90  0.  0.  0.
292  2.91  0.  0.  0.
293  2.92  0.  0.  0.
294  2.93  0.  0.  0.
295  2.94  0.  0.  0.
296  2.95  0.  0.  0.
297  2.96  0.  0.  0.
298  2.97  0.  0.  0.
299  2.98  0.  0.  0.
300  2.99  0.  0.  0.
301  3.00  0.  0.  0.
302  3.01  0.  0.  0.
303  3.02  0.  0.  0.
304  3.03  0.  0.  0.
305  3.04  0.  0.  0.
306  3.05  0.  0.  0.
307  3.06  0.  0.  0.
308  3.07  0.  0.  0.
309  3.08  0.  0.  0.
310  3.09  0.  0.  0.
311  3.10  0.  0.  0.
312  3.11  0.  0.  0.
313  3.12  0.  0.  0.
314  3.13  0.  0.  0.
315  3.14  0.  0.  0.
316  3.15  0.  0.  0.
317  3.16  0.  0.  0.
318  3.17  0.  0.  0.
319  3.18  0.  0.  0.
320  3.19  0.  0.  0.
321  3.20  0.  0.  0.
322  3.21  0.  0.  0.
323  3.22  0.  0.  0.
324  3.23  0.  0.  0.
325  3.24  0.  0.  0.
326  3.25  0.  0.  0.
327  3.26  0.  0.  0.
328  3.27  0.  0.  0.
329  3.28  0.  0.  0.
330  3.29  0.  0.  0.
331  3.30  0.  0.  0.
332  3.31  0.  0.  0.
333  3.32  0.  0.  0.
334  3.33  0.  0.  0.
335  3.34  0.  0.  0.
336  3.35  0.  0.  0.
337  3.36  0.  0.  0.
338  3.37  0.  0.  0.
339  3.38  0.  0.  0.
340  3.39  0.  0.  0.
341  3.40  0.  0.  0.
342  3.41  0.  0.  0.
343  3.42  0.  0.  0.
344  3.43  0.  0.  0.
345  3.44  0.  0.  0.
346  3.45  0.  0.  0.
347  3.46  0.  0.  0.
348  3.47  0.  0.  0.
349  3.48  0.  0.  0.
350  3.49  0.  0.  0.
351  3.50  0.  0.  0.
352  3.51  0.  0.  0.
353  3.52  0.  0.  0.
354  3.53  0.  0.  0.
355  3.54  0.  0.  0.
356  3.55  0.  0.  0.
357  3.56  0.  0.  0.
358  3.57  0.  0.  0.
359  3.58  0.  0.  0.
360  3.59  0.  0.  0.
361  3.60  0.  0.  0.
362  3.61  0.  0.  0.
363  3.62  0.  0.  0.
364  3.63  0.  0.  0.
365  3.64  0.  0.  0.
366  3.65  0.  0.  0.
367  3.66  0.  0.  0.
368  3.67  0.  0.  0.
369  3.68  0.  0.  0.
370  3.69  0.  0.  0.
371  3.70  0.  0.  0.
372  3.71  0.  0.  0.
373  3.72  0.  0.  0.
374  3.73  0.  0.  0.
375  3.74  0.  0.  0.
376  3.75  0.  0.  0.
377  3.76  0.  0.  0.
378  3.77  0.  0.  0.
379  3.78  0.  0.  0.
380  3.79  0.  0.  0.
381  3.80  0.  0.  0.
382  3.81  0.  0.  0.
383  3.82  0.  0.  0.
384  3.83  0.  0.  0.
385  3.84  0.  0.  0.
386  3.85  0.  0.  0.
387  3.86  0.  0.  0.
388  3.87  0.  0.  0.
389  3.88  0.  0.  0.
390  3.89  0.  0.  0.
391  3.90  0.  0.  0.
392  3.91  0.  0.  0.
393  3.92  0.  0.  0.
394  3.93  0.  0.  0.
395  3.94  0.  0.  0.
396  3.95  0.  0.  0.
397  3.96  0.  0.  0.
398  3.97  0.  0.  0.
399  3.98  0.  0.  0.
400  3.99  0.  0.  0.
401  4.00  0.  0.  0.
402  4.01  0.  0.  0.
403  4.02  0.  0.  0.
404  4.03  0.  0.  0.
405  4.04  0.  0.  0.
406  4.05  0.  0.  0.
407  4.06  0.  0.  0.
408  4.07  0.  0.  0.
409  4.08  0.  0.  0.
410  4.09  0.  0.  0.
411  4.10  0.  0.  0.
412  4.11  0.  0.  0.
413  4.12  0.  0.  0.
414  4.13  0.  0.  0.
415  4.14  0.  0.  0.
416  4.15  0.  0.  0.
417  4.16  0.  0.  0.
418  4.17  0.  0.  0.
419  4.18  0.  0.  0.
420  4.19  0.  0.  0.
421  4.20  0.  0.  0.
422  4.21  0.  0.  0.
423  4.22  0.  0.  0.
424  4.23  0.  0.  0.
425  4.24  0.  0.  0.
426  4.25  0.  0.  0.
427  4.26  0.  0.  0.
428  4.27  0.  0.  0.
429  4.28  0.  0.  0.
430  4.29  0.  0.  0.
431  4.30  0.  0.  0.
432  4.31  0.  0.  0.
433  4.32  0.  0.  0.
434  4.33  0.  0.  0.
435  4.34  0.  0.  0.
436  4.35  0.  0.  0.
437  4.36  0.  0.  0.
438  4.37  0.  0.  0.
439  4.38  0.  0.  0.
440  4.39  0.  0.  0.
441  4.40  0.  0.  0.
442  4.41  0.  0.  0.
443  4.42  0.  0.  0.
444  4.43  0.  0.  0.
445  4.44  0.  0.  0.
446  4.45  0.  0.  0.
447  4.46  0.  0.  0.
448  4.47  0.  0.  0.
449  4.48  0.  0.  0.
450  4.49  0.  0.  0.
451  4.50  0.  0.  0.
452  4.51  0.  0.  0.
453  4.52  0.  0.  0.
454  4.53  0.  0.  0.
455  4.54  0.  0.  0.
456  4.55  0.  0.  0.
457  4.56  0.  0.  0.
458  4.57  0.  0.  0.
459  4.58  0.  0.  0.
460  4.59  0.  0.  0.
461  4.60  0.  0.  0.
462  4.61  0.  0.  0.
463  4.62  0.  0.  0.
464  4.63  0.  0.  0.
465  4.64  0.  0.  0.
466  4.65  0.  0.  0.
467  4.66  0.  0.  0.
468  4.67  0.  0.  0.
469  4.68  0.  0.  0.
470  4.69  0.  0.  0.
471  4.70  0.  0.  0.
472  4.71  0.  0.  0.
473  4.72  0.  0.  0.
474  4.73  0.  0.  0.
475  4.74  0.  0.  0.
476  4.75  0.  0.  0.
477  4.76  0.  0.  0.
478  4.77  0.  0.  0.
479  4.78  0.  0.  0.
480  4.79  0.  0.  0.
481  4.80  0.  0.  0.
482  4.81  0.  0.  0.
483  4.82  0.  0.  0.
484  4.83  0.  0.  0.
485  4.84  0.  0.  0.
486  4.85  0.  0.  0.
487  4.86  0.  0.  0.
488  4.87  0.  0.  0.
489  4.88  0.  0.  0.
490  4.89  0.  0.  0.
491  4.90  0.  0.  0.
492  4.91  0.  0.  0.
493  4.92  0.  0.  0.
494  4.93  0.  0.  0.
495  4.94  0.  0.  0.
496  4.95  0.  0.  0.
497  4.96  0.  0.  0.
498  4.97  0.  0.  0.
499  4.98  0.  0.  0.
500  4.99  0.  0.  0.
501  5.00  0.  0.  0.
502  5.01  0.  0.  0.
503  5.02  0.  0.  0.
504  5.03  0.  0.  0.
505  5.04  0.  0.  0.
506  5.05  0.  0.  0.
507  5.06  0.  0.  0.
508  5.07  0.  0.  0.
509  5.08  0.  0.  0.
510  5.09  0.  0.  0.
511  5.10  0.  0.  0.
512  5.11  0.  0.  0.
513  5.12  0.  0.  0.
514  5.13  0.  0.  0.
515  5.14  0.  0.  0.
516  5.15  0.  0.  0.
517  5.16  0.  0.  0.
518  5.17  0.  0.  0.
519  5.18  0.  0.  0.
520  5.19  0.  0.  0.
521  5.20  0.  0.  0.
522  5.21  0.  0.  0.
523  5.22  0.  0.  0.
524  5.23  0.  0.  0.
525  5.24  0.  0.  0.
526  5.25  0.  0.  0.
527  5.26  0.  0.  0.
528  5.27  0.  0.  0.
529  5.28  0.  0.  0.
530  5.29  0.  0.  0.
531  5.30  0.  0.  0.
532  5.31  0.  0.  0.
533  5.32  0.  0.  0.
534  5.33  0.  0.  0.
535  5.34  0.  0.  0.
536  5.35  0.  0.  0.
537  5.36  0.  0.  0.
538  5.37  0.  0.  0.
539  5.38  0.  0.  0.
540  5.39  0.  0.  0.
541  5.40  0.  0.  0.
542  5.41  0.  0.  0.
543  5.42  0.  0.  0.
544  5.43  0.  0.  0.
545  5.44  0.  0.  0.
546  5.45  0.  0.  0.
547  5.46  0.  0.  0.
548  5.47  0.  0.  0.
549  5.48  0.  0.  0.
550  5.49  0.  0.  0.
551  5.50  0.  0.  0.
552  5.51  0.  0.  0.
553  5.52  0.  0.  0.
554  5.53  0.  0.  0.
555  5.54  0.  0.  0.
556  5.55  0.  0.  0.
557  5.56  0.  0.  0.
558  5.57  0.  0.  0.
559  5.58  0.  0.  0.
560  5.59  0.  0.  0.
561  5.60  0.  0.  0.
562  5.61  0.  0.  0.
563  5.62  0.  0.  0.
564  5.63  0.  0.  0.
565  5.64  0.  0.  0.
566  5.65  0.  0.  0.
567  5.66  0.  0.  0.
568  5.67  0.  0.  0.
569  5.68  0.  0.  0.
570  5.69  0.  0.  0.
571  5.70  0.  0.  0.
572  5.71  0.  0.  0.
573  5.72  0.  0.  0.
574  5.73  0.  0.  0.
575  5.74  0.  0.  0.
576  5.75  0.  0.  0.
577  5.76  0.  0.  0.
578  5.77  0.  0.  0.
579  5.78  0.  0.  0.
580  5.79  0.  0.  0.
581  5.80  0.  0.  0.
582  5.81  0.  0.  0.
583  5.82  0.  0.  0.
584  5.83  0.  0.  0.
585  5.84  0.  0.  0.
586  5.85  0.  0.  0.
587  5.86  0.  0.  0.
588  5.87  0.  0.  0.
589  5.88  0.  0.  0.
590  5.89  0.  0.  0.
591  5.90  0.  0.  0.
592  5.91  0.  0.  0.
593  5.92  0.  0.  0.
594  5.93  0.  0.  0.
595  5.94  0.  0.  0.
596  5.95  0.  0.  0.
597  5.96  0.  0.  0.
598  5.97  0.  0.  0.
599  5.98  0.  0.  0.
600  5.99  0.  0.  0.
1                         6.4796044366379E+00  9.9830312277863E-01
1  0.0000000000000E+00  1.3217697297785E-08 -4.2681023215696E-08
2  1.0000000000000E-02  1.2419979185012E-03 -2.2821383404943E-03
3  2.0000000000000E-02  4.9492211395334E-03 -9.0698173048017E-03
4  3.0000000000000E-02  1.1065744897243E-02 -2.0188080537390E-02
5  4.0000000000000E-02  1.9499642919624E-02 -3.5349481695992E-02
6  5.0000000000000E-02  3.0124882829968E-02 -5.4160218335859E-02
7  6.0000000000000E-02  4.2783926038638E-02 -7.6128546104741E-02
8  7.0000000000000E-02  5.7290979704985E-02 -1.0067530403167E-01
9  8.0000000000000E-02  7.3435835131580E-02 -1.2714633901164E-01
10  9.0000000000000E-02  9.0988215009506E-02 -1.5482657901151E-01
11  1.0000000000000E-01  1.0970254149808E-01 -1.8295547080248E-01
12  1.1000000000000E-01  1.2932302840033E-01 -2.1074346982353E-01
13  1.2000000000000E-01  1.4958899386034E-01 -2.3738924765637E-01
14  1.3000000000000E-01  1.7024028519780E-01 -2.6209726699020E-01
15  1.4000000000000E-01  1.9102270480838E-01 -2.8409536519514E-01
16  1.5000000000000E-01  2.1169332555581E-01 -3.0265198589896E-01
17  1.6000000000000E-01  2.3202558577972E-01 -3.1709270333113E-01
18  1.7000000000000E-01  2.5181405792048E-01 -3.2681569658608E-01
19  1.8000000000000E-01  2.7087879075040E-01 -3.3130585015285E-01
20  1.9000000000000E-01  2.8906913319632E-01 -3.3014718272201E-01
21  2.0000000000000E-01  3.0626695759505E-01 -3.2303333794563E-01
22  2.1000000000000E-01  3.2238921175989E-01 -3.0977590791137E-01
23  2.2000000000000E-01  3.3738974223955E-01 -2.9031040190825E-01
24  2.3000000000000E-01  3.5126034537620E-01 -2.6469971882611E-01
25  2.4000000000000E-01  3.6403101794943E-01 -2.3313503038135E-01
26  2.5000000000000E-01  3.7576939503838E-01 -1.9593403336990E-01
27  2.6000000000000E-01  3.8657937894366E-01 -1.5353658134121E-01
28  2.7000000000000E-01  3.9659897927027E-01 -1.0649775846011E-01
29  2.8000000000000E-01  4.0599740026852E-01 -5.5478509862136E-02
30  2.9000000000000E-01  4.1497142694898E-01 -1.2339925079340E-03
31  3.0000000000000E-01  4.2374117602525E-01  5.5400142576595E-02
32  3.1000000000000E-01  4.3254529110558E-01  1.1352328265595E-01
33  3.2000000000000E-01  4.4163567348188E-01  1.7218690770430E-01
34  3.3000000000000E-01  4.5127185010663E-01  2.3041284124711E-01
35  3.4000000000000E-01  4.6171508869193E-01  2.8721234496928E-01
36  3.5000000000000E-01  4.7322237612946E-01  3.4160568409304E-01
37  3.6000000000000E-01  4.8604038047404E-01  3.9264177731855E-01
38  3.7000000000000E-01  5.0039951845657E-01  4.3941753936360E-01
39  3.8000000000000E-01  5.1650824983749E-01  4.8109652602109E-01
40  3.9000000000000E-01  5.3454771686721E-01  5.1692650121130E-01
41  4.0000000000000E-01  5.5466684172032E-01  5.4625556263373E-01
42  4.1000000000000E-01  5.7697798709432E-01  5.6854648706432E-01
43  4.2000000000000E-01  6.0155327533645E-01  5.8338898769934E-01
44  4.3000000000000E-01  6.2842164965046E-01  5.9050961368263E-01
45  4.4000000000000E-01  6.5756674734608E-01  5.8977906540111E-01