Pr    ONCVPSP-4.0.1  r_core=   2.01067   1.60183   1.90528   1.35479
59.0000     13.0000      241015    zatom,zion,pspd
8      11   3     4   600     0    pspcod,pspxc,lmax,lloc,mmax,r2well
5.99000000  4.00000000  0.00000000    rchrg fchrg qchrg
3     2     2     2     0    nproj
1     1           extension_switch
0                         1.3455955000067E+01  4.0878269438136E+00  9.1487947205036E-01
1  0.0000000000000E+00 -2.5873045372826E-09  4.4435747303950E-09 -3.4808189386393E-09
2  1.0000000000000E-02  5.7213973053289E-02 -4.0490044481276E-02  3.2166974230096E-02
3  2.0000000000000E-02  1.1407359660386E-01 -8.0374118312754E-02  6.3860372793127E-02
4  3.0000000000000E-02  1.7022892309197E-01 -1.1905401460476E-01  9.4612785978663E-02
5  4.0000000000000E-02  2.2533875356879E-01 -1.5594695796836E-01  1.2396906010982E-01
6  5.0000000000000E-02  2.7907487448034E-01 -1.9049308136025E-01  1.5149223675593E-01
7  6.0000000000000E-02  3.3112613128188E-01 -2.2216261942884E-01  1.7676926787646E-01
8  7.0000000000000E-02  3.8120228756504E-01 -2.5046272913668E-01  1.9941643633776E-01
9  8.0000000000000E-02  4.2903762096680E-01 -2.7494385287814E-01  2.1908441472476E-01
10  9.0000000000000E-02  4.7439421030799E-01 -2.9520554477068E-01  2.3546289964782E-01
11  1.0000000000000E-01  5.1706487214172E-01 -3.1090168721135E-01  2.4828476377131E-01
12  1.1000000000000E-01  5.5687570913593E-01 -3.2174503208360E-01  2.5732967350898E-01
13  1.2000000000000E-01  5.9368823742045E-01 -3.2751100908983E-01  2.6242712667731E-01
14  1.3000000000000E-01  6.2740106514364E-01 -3.2804075248050E-01  2.6345887130054E-01
15  1.4000000000000E-01  6.5795109994598E-01 -3.2324330684817E-01  2.6036067414018E-01
16  1.5000000000000E-01  6.8531426880680E-01 -3.1309698254987E-01  2.5312341529706E-01
17  1.6000000000000E-01  7.0950573968591E-01 -2.9764984159472E-01  2.4179349331208E-01
18  1.7000000000000E-01  7.3057964049633E-01 -2.7701930536999E-01  2.2647253348376E-01
19  1.8000000000000E-01  7.4862827713444E-01 -2.5139088625402E-01  2.0731640052980E-01
20  1.9000000000000E-01  7.6378085848783E-01 -2.2101605585353E-01  1.8453352514912E-01
21  2.0000000000000E-01  7.7620174246194E-01 -1.8620927317755E-01  1.5838256238974E-01
22  2.1000000000000E-01  7.8608822304689E-01 -1.4734420640219E-01  1.2916940790484E-01
23  2.2000000000000E-01  7.9366788420628E-01 -1.0484919185586E-01  9.7243606078928E-02
24  2.3000000000000E-01  7.9919555184607E-01 -5.9201983353132E-02  6.2994191542285E-02
25  2.4000000000000E-01  8.0294988024440E-01 -1.0923853906913E-02  2.6845012670400E-02
26  2.5000000000000E-01  8.0522961402776E-01  3.9426879956940E-02 -1.0750407801146E-02
27  2.6000000000000E-01  8.0634957100910E-01  9.1261833667900E-02 -4.9314414003089E-02
28  2.7000000000000E-01  8.0663639490228E-01  1.4396994575940E-01 -8.8351093743633E-02
29  2.8000000000000E-01  8.0642413004891E-01  1.9692519508949E-01 -1.2735242019738E-01
30  2.9000000000000E-01  8.0604967279540E-01  2.4949455007456E-01 -1.6580458413632E-01
31  3.0000000000000E-01  8.0584815600494E-01  3.0104605254395E-01 -2.0319443961039E-01
32  3.1000000000000E-01  8.0614832435619E-01  3.5095693665191E-01 -2.3901598413731E-01
33  3.2000000000000E-01  8.0726795854446E-01  3.9862168231326E-01 -2.7277679355536E-01
34  3.3000000000000E-01  8.0950940625606E-01  4.4345990287445E-01 -3.0400433174182E-01
35  3.4000000000000E-01  8.1315527682568E-01  4.8492396820494E-01 -3.3225205641684E-01
36  3.5000000000000E-01  8.1846435481814E-01  5.2250626708155E-01 -3.5710524422834E-01
37  3.6000000000000E-01  8.2566778541492E-01  5.5574601662015E-01 -3.7818646123643E-01
38  3.7000000000000E-01  8.3496558145281E-01  5.8423553154699E-01 -3.9516060875740E-01
39  3.8000000000000E-01  8.4652349829409E-01  6.0762587224040E-01 -4.0773947924756E-01
40  3.9000000000000E-01  8.6047031843695E-01  6.2563179765347E-01 -4.1568576246224E-01
41  4.0000000000000E-01  8.7689558295828E-01  6.3803595736008E-01 -4.1881644844733E-01
42  4.1000000000000E-01  8.9584780156335E-01  6.4469226597106E-01 -4.1700558095077E-01
43  4.2000000000000E-01  9.1733316727048E-01  6.4552841292507E-01 -4.1018632248706E-01
44  4.3000000000000E-01  9.4131479564132E-01  6.4054747107307E-01 -3.9835230047696E-01
45  4.4000000000000E-01  9.6771250205960E-01  6.2982857840715E-01 -3.8155821250779E-01
46  4.5000000000000E-01  9.9640312393648E-01  6.1352667861323E-01 -3.5991967772646E-01
47  4.6000000000000E-01  1.0272213879620E+00  5.9187131770857E-01 -3.3361233057240E-01
48  4.7000000000000E-01  1.0599613157109E+00  5.6516450572403E-01 -3.0287016237922E-01
49  4.8000000000000E-01  1.0943781541382E+00  5.3377766405057E-01 -2.6798312569569E-01
50  4.9000000000000E-01  1.1301908108422E+00  4.9814769055811E-01 -2.2929402539811E-01
51  5.0000000000000E-01  1.1670847675266E+00  4.5877218575119E-01 -1.8719472965737E-01
52  5.1000000000000E-01  1.2047154389324E+00  4.1620389391935E-01 -1.4212174248338E-01
53  5.2000000000000E-01  1.2427119387233E+00  3.7104442332159E-01 -9.4551187776618E-02
54  5.3000000000000E-01  1.2806812084662E+00  3.2393731878879E-01 -4.4993262471473E-02
55  5.4000000000000E-01  1.3182124610304E+00  2.7556056860194E-01  6.0137766490044E-03
56  5.5000000000000E-01  1.3548818854953E+00  2.2661863500196E-01  5.7910021638699E-02
57  5.6000000000000E-01  1.3902575570656E+00  1.7783410409767E-01  1.1012064133528E-01
58  5.7000000000000E-01  1.4239044926113E+00  1.2993905617105E-01  1.6206284783208E-01
59  5.8000000000000E-01  1.4553897902930E+00  8.3666261364433E-02  2.1315301721394E-01
60  5.9000000000000E-01  1.4842877903669E+00  3.9740308402799E-02  2.6281387780463E-01
61  6.0000000000000E-01  1.5101851936874E+00 -1.1312246856862E-03  3.1048167775284E-01
62  6.1000000000000E-01  1.5326860746632E+00 -3.8266448956577E-02  3.5561324345695E-01
63  6.2000000000000E-01  1.5514167264817E+00 -7.1017584620487E-02  3.9769284111949E-01
64  6.3000000000000E-01  1.5660302782753E+00 -9.8779018222409E-02  4.3623875561634E-01
65  6.4000000000000E-01  1.5762110265601E+00 -1.2099489655848E-01  4.7080950385648E-01
66  6.5000000000000E-01  1.5816784266851E+00 -1.3716616247654E-01  5.0100960386436E-01
67  6.6000000000000E-01  1.5821906941680E+00 -1.4685694446396E-01  5.2649482588914E-01
68  6.7000000000000E-01  1.5775479705857E+00 -1.4970021984650E-01  5.4697685787877E-01
69  6.8000000000000E-01  1.5675950141071E+00 -1.4540268040711E-01  5.6222732458020E-01
70  6.9000000000000E-01  1.5522233806972E+00 -1.3374873916546E-01  5.7208110725345E-01
71  7.0000000000000E-01  1.5313730684385E+00 -1.1460362781296E-01  5.7643891942231E-01
72  7.1000000000000E-01  1.5050336042062E+00 -8.7915545730580E-02  5.7526910312080E-01
73  7.2000000000000E-01  1.4732445590130E+00 -5.3716833481614E-02  5.6860861962026E-01
74  7.3000000000000E-01  1.4360954856129E+00 -1.2124156001099E-02  5.5656321850776E-01
75  7.4000000000000E-01  1.3937252793222E+00  3.6662306758557E-02  5.3930677911317E-01
76  7.5000000000000E-01  1.3463209703807E+00  9.2360651395980E-02  5.1707982851012E-01
77  7.6000000000000E-01  1.2941159634302E+00  1.5461000208476E-01  4.9018725051144E-01
78  7.7000000000000E-01  1.2373877467393E+00  2.2297418616703E-01  4.5899521011453E-01
79  7.8000000000000E-01  1.1764551005494E+00  2.9694628778362E-01  4.2392732758491E-01
80  7.9000000000000E-01  1.1116748402583E+00  3.7595402199706E-01  3.8546014567124E-01
81  8.0000000000000E-01  1.0434381360202E+00  4.5936586163719E-01  3.4411794220339E-01
82  8.1000000000000E-01  9.7216645562155E-01  5.4649783981125E-01  3.0046694840998E-01
83  8.2000000000000E-01  8.9830718213534E-01  6.3662094278231E-01  2.5510904061105E-01
84  8.3000000000000E-01  8.2232896178431E-01  7.2896900086596E-01  2.0867497938238E-01
85  8.4000000000000E-01  7.4471684060387E-01  8.2274697920313E-01  1.6181727578393E-01
86  8.5000000000000E-01  6.6596725084862E-01  9.1713956582579E-01  1.1520276871591E-01
87  8.6000000000000E-01  5.8658290959084E-01  1.0113199514008E+00  6.9505000858276E-02
88  8.7000000000000E-01  5.0706769260581E-01  1.1044586934417E+00  2.5396482933686E-02
89  8.8000000000000E-01  4.2792154640925E-01  1.1957325576519E+00 -1.6459062827818E-02
90  8.9000000000000E-01  3.4963550022481E-01  1.2843332303764E+00 -5.5414389137074E-02
91  9.0000000000000E-01  2.7268683771972E-01  1.3694757988890E+00 -9.0846250256897E-02
92  9.1000000000000E-01  1.9753448560165E-01  1.4504069003510E+00 -1.2216268125083E-01
93  9.2000000000000E-01  1.2461467264930E-01  1.5264124457002E+00 -1.4880994563725E-01
94  9.3000000000000E-01  5.4336908522947E-02  1.5968248313465E+00 -1.7027907149726E-01
95  9.4000000000000E-01 -1.2919673175400E-02  1.6610295592799E+00 -1.8611190129718E-01
96  9.5000000000000E-01 -7.6809568561448E-02  1.7184711948851E+00 -1.9590658672644E-01
97  9.6000000000000E-01 -1.3702372073996E-01  1.7686586012794E+00 -1.9932246663475E-01
98  9.7000000000000E-01 -1.9329187388970E-01  1.8111693991856E+00 -1.9608427356239E-01
99  9.8000000000000E-01 -2.4538444396131E-01  1.8456536120550E+00 -1.8598562228298E-01
100  9.9000000000000E-01 -2.9311389256955E-01  1.8718364671949E+00 -1.6889174209869E-01
101  1.0000000000000E+00 -3.3633559752144E-01  1.8895203348591E+00 -1.4474142322116E-01
102  1.0100000000000E+00 -3.7494822024982E-01  1.8985857984393E+00 -1.1354815631253E-01
103  1.0200000000000E+00 -4.0889357712140E-01  1.8989918598995E+00 -7.5400453042090E-02
104  1.0300000000000E+00 -4.3815602803881E-01  1.8907752952230E+00 -3.0461344201541E-02
105  1.0400000000000E+00 -4.6276140187457E-01  1.8740491847541E+00  2.1032939571528E-02
106  1.0500000000000E+00 -4.8277548396320E-01  1.8490006527696E+00  7.8775091184106E-02
107  1.0600000000000E+00 -4.9830209604126E-01  1.8158878592360E+00  1.4238963346254E-01
108  1.0700000000000E+00 -5.0948080360575E-01  1.7750362944320E+00  2.1143657994550E-01
109  1.0800000000000E+00 -5.1648428958050E-01  1.7268344338019E+00  2.8541581457184E-01
110  1.0900000000000E+00 -5.1951543638440E-01  1.6717288159876E+00  3.6377214829809E-01
111  1.1000000000000E+00 -5.1880416096088E-01  1.6102186114367E+00  4.4590100472017E-01
112  1.1100000000000E+00 -5.1460404900414E-01  1.5428497522331E+00  5.3115468133407E-01
113  1.1200000000000E+00 -5.0718883551759E-01  1.4702086958858E+00  6.1884912804493E-01
114  1.1300000000000E+00 -4.9684877895063E-01  1.3929158967403E+00  7.0827117990925E-01
115  1.1400000000000E+00 -4.8388697551119E-01  1.3116190585250E+00  7.9868617672623E-01
116  1.1500000000000E+00 -4.6861565887887E-01  1.2269862403886E+00  8.8934589789499E-01
117  1.1600000000000E+00 -4.5135252849222E-01  1.1396988867407E+00  9.7949673673999E-01
118  1.1700000000000E+00 -4.3241714694151E-01  1.0504448484487E+00  1.0683880341275E+00
119  1.1800000000000E+00 -4.1212744382011E-01  9.5991145960524E-01  1.1552804864014E+00
120  1.1900000000000E+00 -3.9079635982323E-01  8.6877873043585E-01  1.2394545372821E+00
121  1.2000000000000E+00 -3.6872866098495E-01  7.7771271312964E-01  1.3202186570420E+00
122  1.2100000000000E+00 -3.4621794892890E-01  6.8735909380252E-01  1.3969174048196E+00
123  1.2200000000000E+00 -3.2354388894263E-01  5.9833706066098E-01  1.4689391609219E+00
124  1.2300000000000E+00 -3.0096967380485E-01  5.1123349612335E-01  1.5357234051298E+00
125  1.2400000000000E+00 -2.7873973774942E-01  4.2659753948943E-01  1.5967674039980E+00
126  1.2500000000000E+00 -2.5707773193467E-01  3.4493556715019E-01  1.6516321543998E+00
127  1.2600000000000E+00 -2.3618477055372E-01  2.6670663969523E-01  1.6999474119150E+00
128  1.2700000000000E+00 -2.1623795546543E-01  1.9231847007582E-01  1.7414156104191E+00
129  1.2800000000000E+00 -1.9738918723793E-01  1.2212397473093E-01  1.7758144529885E+00
130  1.2900000000000E+00 -1.7976427202664E-01  5.6418480721075E-02  1.8029979236546E+00
131  1.3000000000000E+00 -1.6346233706614E-01 -4.5623228898658E-03  1.8228954337806E+00
132  1.3100000000000E+00 -1.4855557307868E-01 -6.0643581336849E-02  1.8355087754873E+00
133  1.3200000000000E+00 -1.3508932989869E-01 -1.1171148503806E-01  1.8409065071028E+00
134  1.3300000000000E+00 -1.2308260247085E-01 -1.5771233097607E-01  1.8392153412859E+00
135  1.3400000000000E+00 -1.1252895874460E-01 -1.9865023154858E-01  1.8306080319910E+00
136  1.3500000000000E+00 -1.0339797682058E-01 -2.3458323702486E-01  1.8152873777537E+00
137  1.3600000000000E+00 -9.5637289010177E-02 -2.6561752138133E-01  1.7934649728657E+00
138  1.3700000000000E+00 -8.9175121962624E-02 -2.9190086799685E-01  1.7653555254951E+00
139  1.3800000000000E+00 -8.3922738667379E-02 -3.1361878616113E-01  1.7312084273080E+00
140  1.3900000000000E+00 -7.9776871341475E-02 -3.3099089527318E-01  1.6913193770004E+00
141  1.4000000000000E+00 -7.6622312360709E-02 -3.4426644191873E-01  1.6460259139050E+00
142  1.4100000000000E+00 -7.4334567731142E-02 -3.5371964845280E-01  1.5957031725107E+00
143  1.4200000000000E+00 -7.2782534226748E-02 -3.5964493738143E-01  1.5407592568670E+00
144  1.4300000000000E+00 -7.1831159392618E-02 -3.6235210688693E-01  1.4816304303411E+00
145  1.4400000000000E+00 -7.1344045188606E-02 -3.6216152628275E-01  1.4187761706954E+00
146  1.4500000000000E+00 -7.1185957831981E-02 -3.5939941791907E-01  1.3526741482222E+00
147  1.4600000000000E+00 -7.1225208705138E-02 -3.5439328873331E-01  1.2838151836701E+00
148  1.4700000000000E+00 -7.1335874004169E-02 -3.4746757049698E-01  1.2126982413695E+00
149  1.4800000000000E+00 -7.1399824031208E-02 -3.3893952291116E-01  1.1398255106656E+00
150  1.4900000000000E+00 -7.1308536644316E-02 -3.2911544816221E-01  1.0656976261299E+00
151  1.5000000000000E+00 -7.0964673299105E-02 -3.1828725945127E-01  9.9080907377058E-01
152  1.5100000000000E+00 -7.0283400285926E-02 -3.0672943945556E-01  9.1564382674504E-01
153  1.5200000000000E+00 -6.9193442129336E-02 -2.9469641773101E-01  8.4067124976375E-01
154  1.5300000000000E+00 -6.7637858554181E-02 -2.8242038897924E-01  7.6634230707560E-01
155  1.5400000000000E+00 -6.5574540964509E-02 -2.7010958672519E-01  6.9308610385866E-01
156  1.5500000000000E+00 -6.2976428843589E-02 -2.5794701967230E-01  6.2130678588042E-01
157  1.5600000000000E+00 -5.9831450878305E-02 -2.4608967076092E-01  5.5138081712468E-01
158  1.5700000000000E+00 -5.6142199851928E-02 -2.3466815187554E-01  4.8365464971207E-01
159  1.5800000000000E+00 -5.1925354365794E-02 -2.2378680038034E-01  4.1844279520609E-01
160  1.5900000000000E+00 -4.7210864193478E-02 -2.1352419726950E-01  3.5602630119101E-01
161  1.6000000000000E+00 -4.2040919481795E-02 -2.0393408080959E-01  2.9665163200472E-01
162  1.6100000000000E+00 -3.6468727071294E-02 -1.9504662412248E-01  2.4052994751160E-01
163  1.6200000000000E+00 -3.0557119815439E-02 -1.8687004046174E-01  1.8783676942604E-01
164  1.6300000000000E+00 -2.4377026965174E-02 -1.7939247582296E-01  1.3871202035429E-01
165  1.6400000000000E+00 -1.8005835397615E-02 -1.7258414514508E-01  9.3260416782082E-02
166  1.6500000000000E+00 -1.1525672646602E-02 -1.6639966585196E-01  5.1552194005832E-02
167  1.6600000000000E+00 -5.0216434205668E-03 -1.6078054059835E-01  1.3624137772709E-02
168  1.6700000000000E+00  1.4199485475611E-03 -1.5565774017142E-01 -2.0519104908357E-02
169  1.6800000000000E+00  7.7133617673660E-03 -1.5095433722957E-01 -5.0903465546961E-02
170  1.6900000000000E+00  1.3775130673868E-02 -1.4658814225527E-01 -7.7583675592152E-02
171  1.7000000000000E+00  1.9525702302670E-02 -1.4247429441706E-01 -1.0064130168809E-01
172  1.7100000000000E+00  2.4890968275550E-02 -1.3852776212731E-01 -1.2018262748988E-01
173  1.7200000000000E+00  2.9803666612351E-02 -1.3466571095817E-01 -1.3633641459881E-01
174  1.7300000000000E+00  3.4204630415548E-02 -1.3080969995443E-01 -1.4925157484626E-01
175  1.7400000000000E+00  3.8043863344291E-02 -1.2688767133549E-01 -1.5909478534125E-01
176  1.7500000000000E+00  4.1281425023284E-02 -1.2283570321085E-01 -1.6604807609780E-01
177  1.7600000000000E+00  4.3888112875794E-02 -1.1859949966250E-01 -1.7030641875212E-01
178  1.7700000000000E+00  4.5845930524555E-02 -1.1413559794811E-01 -1.7207534254510E-01
179  1.7800000000000E+00  4.7148336556294E-02 -1.0941227790026E-01 -1.7156860177169E-01
180  1.7900000000000E+00  4.7800271264690E-02 -1.0441016433386E-01 -1.6900591617067E-01
181  1.8000000000000E+00  4.7817962746275E-02 -9.9122518910670E-02 -1.6461080312834E-01
182  1.8100000000000E+00  4.7228517413088E-02 -9.3555223477666E-02 -1.5860851789581E-01
183  1.8200000000000E+00  4.6069303624679E-02 -8.7726462497869E-02 -1.5122411497111E-01
184  1.8300000000000E+00  4.4387140533361E-02 -8.1666117390339E-02 -1.4268064107247E-01
185  1.8400000000000E+00  4.2237307507539E-02 -7.5414890741070E-02 -1.3319746701589E-01
186  1.8500000000000E+00  3.9682392127223E-02 -6.9023182250531E-02 -1.2298876419522E-01
187  1.8600000000000E+00  3.6790997880871E-02 -6.2549743671612E-02 -1.1226212668594E-01
188  1.8700000000000E+00  3.3636335508552E-02 -5.6060144962223E-02 -1.0121733530398E-01
189  1.8800000000000E+00  3.0294734065955E-02 -4.9625098712446E-02 -9.0045262943087E-02
190  1.8900000000000E+00  2.6843930869721E-02 -4.3318426845134E-02 -7.8927051219891E-02
191  1.9000000000000E+00  2.3361962238600E-02 -3.7215925028135E-02 -6.8032829389047E-02
192  1.9100000000000E+00  1.9924161148880E-02 -3.1391284801851E-02 -5.7522322842189E-02
193  1.9200000000000E+00  1.6585556764966E-02 -2.5889470321720E-02 -4.7559178669644E-02
194  1.9300000000000E+00  1.3398657919982E-02 -2.0754584628022E-02 -3.8292427805206E-02
195  1.9400000000000E+00  1.0438285349279E-02 -1.6068585442638E-02 -2.9831599213030E-02
196  1.9500000000000E+00  7.7680862782907E-03 -1.1900099255708E-02 -2.2276443754086E-02
197  1.9600000000000E+00  5.4418682323182E-03 -8.3068142643931E-03 -1.5714273750136E-02
198  1.9700000000000E+00  3.5019316340436E-03 -5.3332030249862E-03 -1.0220316369557E-02
199  1.9800000000000E+00  1.9787560306272E-03 -3.0102762699084E-03 -5.8595735933725E-03
200  1.9900000000000E+00  8.8448880458484E-04 -1.3457784206795E-03 -2.6682246370000E-03
201  2.0000000000000E+00  2.3502940033239E-04 -3.5810932016650E-04 -7.2681209555373E-04
202  2.0100000000000E+00  4.6185543118159E-06 -7.0039074585593E-06 -1.6316912992757E-05
203  2.0200000000000E+00 -6.8593720360152E-06  1.0494528147577E-05  2.1606091006024E-05
204  2.0300000000000E+00  3.9348406762809E-06 -6.0061986248792E-06 -1.2193300326804E-05
205  2.04 -0.  0.  0.
206  2.05  0. -0.  0.
207  2.06  0.  0.  0.
208  2.07  0.  0.  0.
209  2.08  0.  0.  0.
210  2.09  0.  0.  0.
211  2.10  0.  0.  0.
212  2.11  0.  0.  0.
213  2.12  0.  0.  0.
214  2.13  0.  0.  0.
215  2.14  0.  0.  0.
216  2.15  0.  0.  0.
217  2.16  0.  0.  0.
218  2.17  0.  0.  0.
219  2.18  0.  0.  0.
220  2.19  0.  0.  0.
221  2.20  0.  0.  0.
222  2.21  0.  0.  0.
223  2.22  0.  0.  0.
224  2.23  0.  0.  0.
225  2.24  0.  0.  0.
226  2.25  0.  0.  0.
227  2.26  0.  0.  0.
228  2.27  0.  0.  0.
229  2.28  0.  0.  0.
230  2.29  0.  0.  0.
231  2.30  0.  0.  0.
232  2.31  0.  0.  0.
233  2.32  0.  0.  0.
234  2.33  0.  0.  0.
235  2.34  0.  0.  0.
236  2.35  0.  0.  0.
237  2.36  0.  0.  0.
238  2.37  0.  0.  0.
239  2.38  0.  0.  0.
240  2.39  0.  0.  0.
241  2.40  0.  0.  0.
242  2.41  0.  0.  0.
243  2.42  0.  0.  0.
244  2.43  0.  0.  0.
245  2.44  0.  0.  0.
246  2.45  0.  0.  0.
247  2.46  0.  0.  0.
248  2.47  0.  0.  0.
249  2.48  0.  0.  0.
250  2.49  0.  0.  0.
251  2.50  0.  0.  0.
252  2.51  0.  0.  0.
253  2.52  0.  0.  0.
254  2.53  0.  0.  0.
255  2.54  0.  0.  0.
256  2.55  0.  0.  0.
257  2.56  0.  0.  0.
258  2.57  0.  0.  0.
259  2.58  0.  0.  0.
260  2.59  0.  0.  0.
261  2.60  0.  0.  0.
262  2.61  0.  0.  0.
263  2.62  0.  0.  0.
264  2.63  0.  0.  0.
265  2.64  0.  0.  0.
266  2.65  0.  0.  0.
267  2.66  0.  0.  0.
268  2.67  0.  0.  0.
269  2.68  0.  0.  0.
270  2.69  0.  0.  0.
271  2.70  0.  0.  0.
272  2.71  0.  0.  0.
273  2.72  0.  0.  0.
274  2.73  0.  0.  0.
275  2.74  0.  0.  0.
276  2.75  0.  0.  0.
277  2.76  0.  0.  0.
278  2.77  0.  0.  0.
279  2.78  0.  0.  0.
280  2.79  0.  0.  0.
281  2.80  0.  0.  0.
282  2.81  0.  0.  0.
283  2.82  0.  0.  0.
284  2.83  0.  0.  0.
285  2.84  0.  0.  0.
286  2.85  0.  0.  0.
287  2.86  0.  0.  0.
288  2.87  0.  0.  0.
289  2.88  0.  0.  0.
290  2.89  0.  0.  0.
291  2.90  0.  0.  0.
292  2.91  0.  0.  0.
293  2.92  0.  0.  0.
294  2.93  0.  0.  0.
295  2.94  0.  0.  0.
296  2.95  0.  0.  0.
297  2.96  0.  0.  0.
298  2.97  0.  0.  0.
299  2.98  0.  0.  0.
300  2.99  0.  0.  0.
301  3.00  0.  0.  0.
302  3.01  0.  0.  0.
303  3.02  0.  0.  0.
304  3.03  0.  0.  0.
305  3.04  0.  0.  0.
306  3.05  0.  0.  0.
307  3.06  0.  0.  0.
308  3.07  0.  0.  0.
309  3.08  0.  0.  0.
310  3.09  0.  0.  0.
311  3.10  0.  0.  0.
312  3.11  0.  0.  0.
313  3.12  0.  0.  0.
314  3.13  0.  0.  0.
315  3.14  0.  0.  0.
316  3.15  0.  0.  0.
317  3.16  0.  0.  0.
318  3.17  0.  0.  0.
319  3.18  0.  0.  0.
320  3.19  0.  0.  0.
321  3.20  0.  0.  0.
322  3.21  0.  0.  0.
323  3.22  0.  0.  0.
324  3.23  0.  0.  0.
325  3.24  0.  0.  0.
326  3.25  0.  0.  0.
327  3.26  0.  0.  0.
328  3.27  0.  0.  0.
329  3.28  0.  0.  0.
330  3.29  0.  0.  0.
331  3.30  0.  0.  0.
332  3.31  0.  0.  0.
333  3.32  0.  0.  0.
334  3.33  0.  0.  0.
335  3.34  0.  0.  0.
336  3.35  0.  0.  0.
337  3.36  0.  0.  0.
338  3.37  0.  0.  0.
339  3.38  0.  0.  0.
340  3.39  0.  0.  0.
341  3.40  0.  0.  0.
342  3.41  0.  0.  0.
343  3.42  0.  0.  0.
344  3.43  0.  0.  0.
345  3.44  0.  0.  0.
346  3.45  0.  0.  0.
347  3.46  0.  0.  0.
348  3.47  0.  0.  0.
349  3.48  0.  0.  0.
350  3.49  0.  0.  0.
351  3.50  0.  0.  0.
352  3.51  0.  0.  0.
353  3.52  0.  0.  0.
354  3.53  0.  0.  0.
355  3.54  0.  0.  0.
356  3.55  0.  0.  0.
357  3.56  0.  0.  0.
358  3.57  0.  0.  0.
359  3.58  0.  0.  0.
360  3.59  0.  0.  0.
361  3.60  0.  0.  0.
362  3.61  0.  0.  0.
363  3.62  0.  0.  0.
364  3.63  0.  0.  0.
365  3.64  0.  0.  0.
366  3.65  0.  0.  0.
367  3.66  0.  0.  0.
368  3.67  0.  0.  0.
369  3.68  0.  0.  0.
370  3.69  0.  0.  0.
371  3.70  0.  0.  0.
372  3.71  0.  0.  0.
373  3.72  0.  0.  0.
374  3.73  0.  0.  0.
375  3.74  0.  0.  0.
376  3.75  0.  0.  0.
377  3.76  0.  0.  0.
378  3.77  0.  0.  0.
379  3.78  0.  0.  0.
380  3.79  0.  0.  0.
381  3.80  0.  0.  0.
382  3.81  0.  0.  0.
383  3.82  0.  0.  0.
384  3.83  0.  0.  0.
385  3.84  0.  0.  0.
386  3.85  0.  0.  0.
387  3.86  0.  0.  0.
388  3.87  0.  0.  0.
389  3.88  0.  0.  0.
390  3.89  0.  0.  0.
391  3.90  0.  0.  0.
392  3.91  0.  0.  0.
393  3.92  0.  0.  0.
394  3.93  0.  0.  0.
395  3.94  0.  0.  0.
396  3.95  0.  0.  0.
397  3.96  0.  0.  0.
398  3.97  0.  0.  0.
399  3.98  0.  0.  0.
400  3.99  0.  0.  0.
401  4.00  0.  0.  0.
402  4.01  0.  0.  0.
403  4.02  0.  0.  0.
404  4.03  0.  0.  0.
405  4.04  0.  0.  0.
406  4.05  0.  0.  0.
407  4.06  0.  0.  0.
408  4.07  0.  0.  0.
409  4.08  0.  0.  0.
410  4.09  0.  0.  0.
411  4.10  0.  0.  0.
412  4.11  0.  0.  0.
413  4.12  0.  0.  0.
414  4.13  0.  0.  0.
415  4.14  0.  0.  0.
416  4.15  0.  0.  0.
417  4.16  0.  0.  0.
418  4.17  0.  0.  0.
419  4.18  0.  0.  0.
420  4.19  0.  0.  0.
421  4.20  0.  0.  0.
422  4.21  0.  0.  0.
423  4.22  0.  0.  0.
424  4.23  0.  0.  0.
425  4.24  0.  0.  0.
426  4.25  0.  0.  0.
427  4.26  0.  0.  0.
428  4.27  0.  0.  0.
429  4.28  0.  0.  0.
430  4.29  0.  0.  0.
431  4.30  0.  0.  0.
432  4.31  0.  0.  0.
433  4.32  0.  0.  0.
434  4.33  0.  0.  0.
435  4.34  0.  0.  0.
436  4.35  0.  0.  0.
437  4.36  0.  0.  0.
438  4.37  0.  0.  0.
439  4.38  0.  0.  0.
440  4.39  0.  0.  0.
441  4.40  0.  0.  0.
442  4.41  0.  0.  0.
443  4.42  0.  0.  0.
444  4.43  0.  0.  0.
445  4.44  0.  0.  0.
446  4.45  0.  0.  0.
447  4.46  0.  0.  0.
448  4.47  0.  0.  0.
449  4.48  0.  0.  0.
450  4.49  0.  0.  0.
451  4.50  0.  0.  0.
452  4.51  0.  0.  0.
453  4.52  0.  0.  0.
454  4.53  0.  0.  0.
455  4.54  0.  0.  0.
456  4.55  0.  0.  0.
457  4.56  0.  0.  0.
458  4.57  0.  0.  0.
459  4.58  0.  0.  0.
460  4.59  0.  0.  0.
461  4.60  0.  0.  0.
462  4.61  0.  0.  0.
463  4.62  0.  0.  0.
464  4.63  0.  0.  0.
465  4.64  0.  0.  0.
466  4.65  0.  0.  0.
467  4.66  0.  0.  0.
468  4.67  0.  0.  0.
469  4.68  0.  0.  0.
470  4.69  0.  0.  0.
471  4.70  0.  0.  0.
472  4.71  0.  0.  0.
473  4.72  0.  0.  0.
474  4.73  0.  0.  0.
475  4.74  0.  0.  0.
476  4.75  0.  0.  0.
477  4.76  0.  0.  0.
478  4.77  0.  0.  0.
479  4.78  0.  0.  0.
480  4.79  0.  0.  0.
481  4.80  0.  0.  0.
482  4.81  0.  0.  0.
483  4.82  0.  0.  0.
484  4.83  0.  0.  0.
485  4.84  0.  0.  0.
486  4.85  0.  0.  0.
487  4.86  0.  0.  0.
488  4.87  0.  0.  0.
489  4.88  0.  0.  0.
490  4.89  0.  0.  0.
491  4.90  0.  0.  0.
492  4.91  0.  0.  0.
493  4.92  0.  0.  0.
494  4.93  0.  0.  0.
495  4.94  0.  0.  0.
496  4.95  0.  0.  0.
497  4.96  0.  0.  0.
498  4.97  0.  0.  0.
499  4.98  0.  0.  0.
500  4.99  0.  0.  0.
501  5.00  0.  0.  0.
502  5.01  0.  0.  0.
503  5.02  0.  0.  0.
504  5.03  0.  0.  0.
505  5.04  0.  0.  0.
506  5.05  0.  0.  0.
507  5.06  0.  0.  0.
508  5.07  0.  0.  0.
509  5.08  0.  0.  0.
510  5.09  0.  0.  0.
511  5.10  0.  0.  0.
512  5.11  0.  0.  0.
513  5.12  0.  0.  0.
514  5.13  0.  0.  0.
515  5.14  0.  0.  0.
516  5.15  0.  0.  0.
517  5.16  0.  0.  0.
518  5.17  0.  0.  0.
519  5.18  0.  0.  0.
520  5.19  0.  0.  0.
521  5.20  0.  0.  0.
522  5.21  0.  0.  0.
523  5.22  0.  0.  0.
524  5.23  0.  0.  0.
525  5.24  0.  0.  0.
526  5.25  0.  0.  0.
527  5.26  0.  0.  0.
528  5.27  0.  0.  0.
529  5.28  0.  0.  0.
530  5.29  0.  0.  0.
531  5.30  0.  0.  0.
532  5.31  0.  0.  0.
533  5.32  0.  0.  0.
534  5.33  0.  0.  0.
535  5.34  0.  0.  0.
536  5.35  0.  0.  0.
537  5.36  0.  0.  0.
538  5.37  0.  0.  0.
539  5.38  0.  0.  0.
540  5.39  0.  0.  0.
541  5.40  0.  0.  0.
542  5.41  0.  0.  0.
543  5.42  0.  0.  0.
544  5.43  0.  0.  0.
545  5.44  0.  0.  0.
546  5.45  0.  0.  0.
547  5.46  0.  0.  0.
548  5.47  0.  0.  0.
549  5.48  0.  0.  0.
550  5.49  0.  0.  0.
551  5.50  0.  0.  0.
552  5.51  0.  0.  0.
553  5.52  0.  0.  0.
554  5.53  0.  0.  0.
555  5.54  0.  0.  0.
556  5.55  0.  0.  0.
557  5.56  0.  0.  0.
558  5.57  0.  0.  0.
559  5.58  0.  0.  0.
560  5.59  0.  0.  0.
561  5.60  0.  0.  0.
562  5.61  0.  0.  0.
563  5.62  0.  0.  0.
564  5.63  0.  0.  0.
565  5.64  0.  0.  0.
566  5.65  0.  0.  0.
567  5.66  0.  0.  0.
568  5.67  0.  0.  0.
569  5.68  0.  0.  0.
570  5.69  0.  0.  0.
571  5.70  0.  0.  0.
572  5.71  0.  0.  0.
573  5.72  0.  0.  0.
574  5.73  0.  0.  0.
575  5.74  0.  0.  0.
576  5.75  0.  0.  0.
577  5.76  0.  0.  0.
578  5.77  0.  0.  0.
579  5.78  0.  0.  0.
580  5.79  0.  0.  0.
581  5.80  0.  0.  0.
582  5.81  0.  0.  0.
583  5.82  0.  0.  0.
584  5.83  0.  0.  0.
585  5.84  0.  0.  0.
586  5.85  0.  0.  0.
587  5.86  0.  0.  0.
588  5.87  0.  0.  0.
589  5.88  0.  0.  0.
590  5.89  0.  0.  0.
591  5.90  0.  0.  0.
592  5.91  0.  0.  0.
593  5.92  0.  0.  0.
594  5.93  0.  0.  0.
595  5.94  0.  0.  0.
596  5.95  0.  0.  0.
597  5.96  0.  0.  0.
598  5.97  0.  0.  0.
599  5.98  0.  0.  0.
600  5.99  0.  0.  0.
1                         6.5112935780984E+00  9.5686958972149E-01
1  0.0000000000000E+00  1.2733096840800E-08 -4.2974302755239E-08
2  1.0000000000000E-02  1.2323932418188E-03 -2.3480158351127E-03
3  2.0000000000000E-02  4.9113915377294E-03 -9.3326227364573E-03
4  3.0000000000000E-02  1.0982823610068E-02 -2.0776761175482E-02
5  4.0000000000000E-02  1.9357639864792E-02 -3.6389514245116E-02
6  5.0000000000000E-02  2.9913740085705E-02 -5.5772293044309E-02
7  6.0000000000000E-02  4.2498480508589E-02 -7.8427321813180E-02
8  7.0000000000000E-02  5.6931809780895E-02 -1.0376825246399E-01
9  8.0000000000000E-02  7.3009970579543E-02 -1.3113269517881E-01
10  9.0000000000000E-02  9.0509692153078E-02 -1.5979641289788E-01
11  1.0000000000000E-01  1.0919278899985E-01 -1.8898889355960E-01
12  1.1000000000000E-01  1.2881107248884E-01 -2.1790998554077E-01
13  1.2000000000000E-01  1.4911147564124E-01 -2.4574725944516E-01
14  1.3000000000000E-01  1.6984128665148E-01 -2.7169374364705E-01
15  1.4000000000000E-01  1.9075338413206E-01 -2.9496567213794E-01
16  1.5000000000000E-01  2.1161136657478E-01 -3.1481988144222E-01
17  1.6000000000000E-01  2.3219447014919E-01 -3.3057049872209E-01
18  1.7000000000000E-01  2.5230217268404E-01 -3.4160457560678E-01
19  1.8000000000000E-01  2.7175838743732E-01 -3.4739634154635E-01
20  1.9000000000000E-01  2.9041515795183E-01 -3.4751977626404E-01
21  2.0000000000000E-01  3.0815577477801E-01 -3.4165923269662E-01
22  2.1000000000000E-01  3.2489724594858E-01 -3.2961787908385E-01
23  2.2000000000000E-01  3.4059206560574E-01 -3.1132377090553E-01
24  2.3000000000000E-01  3.5522923887527E-01 -2.8683340938039E-01
25  2.4000000000000E-01  3.6883453569621E-01 -2.5633269236857E-01
26  2.5000000000000E-01  3.8146996157174E-01 -2.2013521482774E-01
27  2.6000000000000E-01  3.9323244881472E-01 -1.7867792848152E-01
28  2.7000000000000E-01  4.0425178752050E-01 -1.3251422306060E-01
29  2.8000000000000E-01  4.1468783090582E-01 -8.2304543350827E-02
30  2.9000000000000E-01  4.2472702450581E-01 -2.8804706318311E-02
31  3.0000000000000E-01  4.3457832272738E-01  2.7147870204217E-02
32  3.1000000000000E-01  4.4446856913966E-01  8.4649772331545E-02
33  3.2000000000000E-01  4.5463742837852E-01  1.4274873468013E-01
34  3.3000000000000E-01  4.6533196741969E-01  2.0046199750391E-01
35  3.4000000000000E-01  4.7680099202500E-01  2.5679552197430E-01
36  3.5000000000000E-01  4.8928925021717E-01  3.1076368858994E-01
37  3.6000000000000E-01  5.0303161855234E-01  3.6140909028729E-01
38  3.7000000000000E-01  5.1824738864072E-01  4.0782202589833E-01
39  3.8000000000000E-01  5.3513477075747E-01  4.4915930135345E-01
40  3.9000000000000E-01  5.5386572847903E-01  4.8466195549602E-01
41  4.0000000000000E-01  5.7458125310396E-01  5.1367154445459E-01
42  4.1000000000000E-01  5.9738717925164E-01  5.3564464295355E-01
43  4.2000000000000E-01  6.2235063359312E-01  5.5016525233600E-01
44  4.3000000000000E-01  6.4949719731898E-01  5.5695484288587E-01
45  4.4000000000000E-01  6.7880884988612E-01  5.5587980160501E-01