<?xml version="1.0" encoding="UTF-8" ?>
<psml version="1.1" energy_unit="hartree" length_unit="bohr"
 uuid="c9e15140-c73e-11ed-688e-9d09e6b7e568"
 xmlns="http://esl.cecam.org/PSML/ns/1.1">
<provenance creator="ONCVPSP-4.0.1+psml-4.0.1-76 (scalar-relativistic)"
 date="2023-03-20">
<annotation action="semilocal-pseudopotential-generation"
 action-cont="projectors-generation" />
<input-file name="oncvpsp-input">
<![CDATA[# atsym z nc nv iexc psfile
Xe 54 6 5 4 both
# n l f
1 0 2.0
2 0 2.0
2 1 6.0
3 0 2.0
3 1 6.0
3 2 10.0
4 0 2.0
4 1 6.0
4 2 10.0
5 0 2.0
5 1 6.0
# lmax
3
# l rc ep ncon nbas qcut
0 1.4 0.0 4 8 9.4
1 1.4 0.0 4 8 9.6
2 1.4 0.0 4 8 11.0
3 1.4 0.05 4 8 8.0
# lloc lpopt rc5 dvloc0
4 5 1.2 0.0
# l nproj debl
0 2 1.0
1 2 1.0
2 2 4.0
3 2 2.0
# icmod fcfact rcfact
3 3.0 1.6
# epsh1 epsh2 depsh
-12.0 12.0 0.02
# rlmax drl
6.0 0.01
 0
]]>
</input-file>
</provenance>
<pseudo-atom-spec atomic-label="Xe" atomic-number="54" z-pseudo="26"
 flavor="Hamann&apos;s oncvpsp" relativity="scalar" spin-dft="no"
 core-corrections="yes">
<annotation pseudo-energy="-330.670253565" cutoff_hint_low="35"
 cutoff_hint_normal="37" cutoff_hint_high="40" />
<exchange-correlation>
<annotation oncvpsp-xc-code="4" oncvpsp-xc-type="GGA -- Perdew-Burke-Ernzerhof" />
<libxc-info number-of-functionals="2">
<functional name="Perdew, Burke &amp; Ernzerhof (GGA)" type="exchange" id="101" />
<functional name="Perdew, Burke &amp; Ernzerhof (GGA)" type="correlation"
 id="130" />
</libxc-info>
</exchange-correlation>
<valence-configuration total-valence-charge="26">
<shell n="4" l="s" occupation="2" />
<shell n="4" l="p" occupation="6" />
<shell n="4" l="d" occupation="10" />
<shell n="5" l="s" occupation="2" />
<shell n="5" l="p" occupation="6" />
</valence-configuration>
</pseudo-atom-spec>
<grid npts="797">
<annotation type="sampled from oncvpsp log grid"
 recipe="r(i:1..N) = r1*exp(a*(i-1)) + r=0; resampled"
 recipe-cont="r1: scale; a: step" scale="0.925925925926E-05"
 step="0.598207167755E-02" delta="0.500000000000E-02" rmax="44.5228191909" />
<grid-data>
  0.000000000000E+00  5.007857493668E-03  1.002346147163E-02  1.505498802211E-02
  2.006242789463E-02  2.518295887362E-02  3.031406367729E-02  3.541535971227E-02
  4.063920596422E-02  4.580414999906E-02  5.101154545345E-02  5.613531612369E-02
  6.140530367830E-02  6.676942151818E-02  7.216911222480E-02  7.754023833737E-02
  8.281422071629E-02  8.791940224324E-02  9.333929878166E-02  9.850229752908E-02
  1.039508839809E-01  1.090465757687E-01  1.143920593217E-01  1.199995794789E-01
  1.251311941587E-01  1.304822551844E-01  1.360621468730E-01  1.418806548486E-01
  1.470655896659E-01  1.524400045015E-01  1.580108237774E-01  1.637852249641E-01
  1.697706478280E-01  1.749252525021E-01  1.802363621415E-01  1.857087285760E-01
  1.913472479113E-01  1.971569649093E-01  2.031430775021E-01  2.093109414421E-01
  2.143797963160E-01  2.195714029655E-01  2.248887340540E-01  2.303348342332E-01
  2.359128218868E-01  2.416258909160E-01  2.474773125684E-01  2.534704373106E-01
  2.596086967475E-01  2.658956055863E-01  2.723347636496E-01  2.789298579363E-01
  2.839807800527E-01  2.891231653577E-01  2.943586700866E-01  2.996889804660E-01
  3.051158132571E-01  3.106409163086E-01  3.162660691196E-01  3.219930834126E-01
  3.278238037176E-01  3.337601079652E-01  3.398039080925E-01  3.459571506578E-01
  3.522218174687E-01  3.585999262193E-01  3.650935311409E-01  3.717047236630E-01
  3.784356330873E-01  3.852884272734E-01  3.922653133367E-01  3.993685383599E-01
  4.066003901162E-01  4.139631978061E-01  4.214593328080E-01  4.265320173377E-01
  4.316657566983E-01  4.368612857460E-01  4.421193481812E-01  4.474406966559E-01
  4.528260928809E-01  4.582763077348E-01  4.637921213747E-01  4.693743233475E-01
  4.750237127033E-01  4.807410981094E-01  4.865272979663E-01  4.923831405246E-01
  4.983094640040E-01  5.043071167127E-01  5.103769571695E-01  5.165198542260E-01
  5.227366871914E-01  5.290283459585E-01  5.353957311304E-01  5.418397541503E-01
  5.483613374313E-01  5.549614144886E-01  5.616409300734E-01  5.684008403077E-01
  5.752421128217E-01  5.821657268916E-01  5.891726735805E-01  5.962639558797E-01
  6.034405888526E-01  6.107035997801E-01  6.180540283070E-01  6.254929265917E-01
  6.330213594562E-01  6.406404045386E-01  6.483511524476E-01  6.561547069185E-01
  6.640521849710E-01  6.720447170693E-01  6.801334472839E-01  6.883195334554E-01
  6.966041473601E-01  7.049884748777E-01  7.134737161614E-01  7.220610858091E-01
  7.307518130379E-01  7.395471418596E-01  7.484483312590E-01  7.574566553740E-01
  7.665734036781E-01  7.757998811648E-01  7.851374085345E-01  7.945873223836E-01
  8.041509753958E-01  8.138297365357E-01  8.236249912446E-01  8.335381416393E-01
  8.385393704891E-01  8.435706067120E-01  8.486320303523E-01  8.537238225344E-01
  8.588461654696E-01  8.639992424624E-01  8.691832379172E-01  8.743983373447E-01
  8.796447273688E-01  8.849225957330E-01  8.902321313074E-01  8.955735240952E-01
  9.009469652398E-01  9.063526470313E-01  9.117907629134E-01  9.172615074909E-01
  9.227650765359E-01  9.283016669951E-01  9.338714769971E-01  9.394747058590E-01
  9.451115540942E-01  9.507822234188E-01  9.564869167593E-01  9.622258382598E-01
  9.679991932894E-01  9.738071884491E-01  9.796500315798E-01  9.855279317693E-01
  9.914410993599E-01  9.973897459561E-01  1.003374084432E+00  1.009394328938E+00
  1.015450694912E+00  1.021543399081E+00  1.027672659476E+00  1.033838695433E+00
  1.040041727605E+00  1.046281977971E+00  1.052559669839E+00  1.058875027858E+00
  1.065228278025E+00  1.071619647693E+00  1.078049365579E+00  1.084517661773E+00
  1.091024767743E+00  1.097570916350E+00  1.104156341848E+00  1.110781279899E+00
  1.117445967579E+00  1.124150643384E+00  1.130895547244E+00  1.137680920528E+00
  1.144507006051E+00  1.151374048087E+00  1.158282292376E+00  1.165231986130E+00
  1.172223378047E+00  1.179256718315E+00  1.186332258625E+00  1.193450252177E+00
  1.200610953690E+00  1.207814619412E+00  1.215061507128E+00  1.222351876171E+00
  1.229685987428E+00  1.237064103353E+00  1.244486487973E+00  1.251953406901E+00
  1.259465127342E+00  1.267021918106E+00  1.274624049615E+00  1.282271793913E+00
  1.289965424676E+00  1.297705217224E+00  1.305491448527E+00  1.313324397219E+00
  1.321204343602E+00  1.329131569663E+00  1.337106359081E+00  1.345128997236E+00
  1.353199771219E+00  1.361318969847E+00  1.369486883666E+00  1.377703804968E+00
  1.385970027798E+00  1.394285847964E+00  1.402651563052E+00  1.411067472430E+00
  1.419533877265E+00  1.428051080529E+00  1.436619387012E+00  1.445239103334E+00
  1.453910537954E+00  1.462634001182E+00  1.471409805189E+00  1.480238264020E+00
  1.489119693604E+00  1.498054411766E+00  1.507042738236E+00  1.516084994666E+00
  1.525181504634E+00  1.534332593661E+00  1.543538589223E+00  1.552799820759E+00
  1.562116619683E+00  1.571489319401E+00  1.580918255318E+00  1.590403764850E+00
  1.599946187439E+00  1.609545864563E+00  1.619203139751E+00  1.628918358589E+00
  1.638691868741E+00  1.648524019953E+00  1.658415164073E+00  1.668365655057E+00
  1.678375848988E+00  1.688446104082E+00  1.698576780706E+00  1.708768241390E+00
  1.719020850839E+00  1.729334975944E+00  1.739710985799E+00  1.750149251714E+00
  1.760650147224E+00  1.771214048108E+00  1.781841332396E+00  1.792532380391E+00
  1.803287574673E+00  1.814107300121E+00  1.824991943922E+00  1.835941895586E+00
  1.846957546959E+00  1.858039292241E+00  1.869187527994E+00  1.880402653162E+00
  1.891685069081E+00  1.903035179496E+00  1.914453390573E+00  1.925940110916E+00
  1.937495751582E+00  1.949120726091E+00  1.960815450448E+00  1.972580343150E+00
  1.984415825209E+00  1.996322320160E+00  2.008300254081E+00  2.020350055606E+00
  2.032472155940E+00  2.044666988875E+00  2.056934990808E+00  2.069276600753E+00
  2.081692260358E+00  2.094182413920E+00  2.106747508403E+00  2.119387993454E+00
  2.132104321415E+00  2.144896947343E+00  2.157766329027E+00  2.170712927001E+00
  2.183737204563E+00  2.196839627791E+00  2.210020665557E+00  2.223280789551E+00
  2.236620474288E+00  2.250040197134E+00  2.263540438317E+00  2.277121680947E+00
  2.290784411032E+00  2.304529117498E+00  2.318356292203E+00  2.332266429957E+00
  2.346260028536E+00  2.360337588708E+00  2.374499614240E+00  2.388746611925E+00
  2.403079091597E+00  2.417497566146E+00  2.432002551543E+00  2.446594566853E+00
  2.461274134254E+00  2.476041779059E+00  2.490898029733E+00  2.505843417912E+00
  2.520878478419E+00  2.536003749290E+00  2.551219771786E+00  2.566527090416E+00
  2.581926252959E+00  2.597417810477E+00  2.613002317339E+00  2.628680331243E+00
  2.644452413231E+00  2.660319127710E+00  2.676281042477E+00  2.692338728731E+00
  2.708492761104E+00  2.724743717670E+00  2.741092179976E+00  2.757538733056E+00
  2.774083965455E+00  2.790728469247E+00  2.807472840063E+00  2.824317677103E+00
  2.841263583166E+00  2.858311164665E+00  2.875461031653E+00  2.892713797843E+00
  2.910070080630E+00  2.927530501114E+00  2.945095684120E+00  2.962766258225E+00
  2.980542855774E+00  2.998426112909E+00  3.016416669586E+00  3.034515169604E+00
  3.052722260622E+00  3.071038594185E+00  3.089464825750E+00  3.108001614705E+00
  3.126649624393E+00  3.145409522140E+00  3.164281979272E+00  3.183267671148E+00
  3.202367277175E+00  3.221581480838E+00  3.240910969723E+00  3.260356435541E+00
  3.279918574155E+00  3.299598085600E+00  3.319395674113E+00  3.339312048158E+00
  3.359347920447E+00  3.379504007969E+00  3.399781032017E+00  3.420179718209E+00
  3.440700796519E+00  3.461345001298E+00  3.482113071305E+00  3.503005749733E+00
  3.524023784232E+00  3.545167926937E+00  3.566438934499E+00  3.587837568106E+00
  3.609364593514E+00  3.631020781075E+00  3.652806905762E+00  3.674723747196E+00
  3.696772089680E+00  3.718952722218E+00  3.741266438551E+00  3.763714037182E+00
  3.786296321405E+00  3.809014099334E+00  3.831868183930E+00  3.854859393033E+00
  3.877988549392E+00  3.901256480688E+00  3.924664019572E+00  3.948212003690E+00
  3.971901275712E+00  3.995732683366E+00  4.019707079466E+00  4.043825321943E+00
  4.068088273875E+00  4.092496803518E+00  4.117051784339E+00  4.141754095045E+00
  4.166604619615E+00  4.191604247333E+00  4.216753872817E+00  4.242054396054E+00
  4.267506722430E+00  4.293111762765E+00  4.318870433341E+00  4.344783655941E+00
  4.370852357877E+00  4.397077472024E+00  4.423459936856E+00  4.450000696478E+00
  4.476700700656E+00  4.503560904860E+00  4.530582270290E+00  4.557765763911E+00
  4.585112358495E+00  4.612623032646E+00  4.640298770842E+00  4.668140563467E+00
  4.696149406847E+00  4.724326303289E+00  4.752672261108E+00  4.781188294675E+00
  4.809875424443E+00  4.838734676990E+00  4.867767085052E+00  4.896973687562E+00
  4.926355529687E+00  4.955913662865E+00  4.985649144843E+00  5.015563039712E+00
  5.045656417950E+00  5.075930356458E+00  5.106385938596E+00  5.137024254228E+00
  5.167846399753E+00  5.198853478152E+00  5.230046599021E+00  5.261426878615E+00
  5.292995439887E+00  5.324753412526E+00  5.356701933001E+00  5.388842144599E+00
  5.421175197467E+00  5.453702248651E+00  5.486424462143E+00  5.519343008916E+00
  5.552459066970E+00  5.585773821371E+00  5.619288464300E+00  5.653004195086E+00
  5.686922220256E+00  5.721043753578E+00  5.755370016099E+00  5.789902236196E+00
  5.824641649613E+00  5.859589499510E+00  5.894747036508E+00  5.930115518727E+00
  5.965696211839E+00  6.001490389110E+00  6.037499331445E+00  6.073724327433E+00
  6.110166673398E+00  6.146827673438E+00  6.183708639479E+00  6.220810891316E+00
  6.258135756664E+00  6.295684571204E+00  6.333458678631E+00  6.371459430703E+00
  6.409688187287E+00  6.448146316411E+00  6.486835194309E+00  6.525756205475E+00
  6.564910742708E+00  6.604300207164E+00  6.643926008407E+00  6.683789564457E+00
  6.723892301844E+00  6.764235655655E+00  6.804821069589E+00  6.845649996007E+00
  6.886723895983E+00  6.928044239359E+00  6.969612504795E+00  7.011430179824E+00
  7.053498760903E+00  7.095819753468E+00  7.138394671989E+00  7.181225040021E+00
  7.224312390261E+00  7.267658264602E+00  7.311264214190E+00  7.355131799475E+00
  7.399262590272E+00  7.443658165814E+00  7.488320114809E+00  7.533250035497E+00
  7.578449535710E+00  7.623920232925E+00  7.669663754322E+00  7.715681736848E+00
  7.761975827269E+00  7.808547682233E+00  7.855398968326E+00  7.902531362136E+00
  7.949946550309E+00  7.997646229611E+00  8.045632106988E+00  8.093905899630E+00
  8.142469335028E+00  8.191324151038E+00  8.240472095945E+00  8.289914928520E+00
  8.339654418091E+00  8.389692344600E+00  8.440030498668E+00  8.490670681660E+00
  8.541614705749E+00  8.592864393984E+00  8.644421580348E+00  8.696288109830E+00
  8.748465838489E+00  8.800956633520E+00  8.853762373321E+00  8.906884947561E+00
  8.960326257246E+00  9.014088214790E+00  9.068172744079E+00  9.122581780543E+00
  9.177317271226E+00  9.232381174854E+00  9.287775461903E+00  9.343502114674E+00
  9.399563127362E+00  9.455960506126E+00  9.512696269163E+00  9.569772446778E+00
  9.627191081459E+00  9.684954227948E+00  9.743063953315E+00  9.801522337035E+00
  9.860331471057E+00  9.919493459884E+00  9.979010420643E+00  1.003888448317E+01
  1.009911779007E+01  1.015971249681E+01  1.022067077179E+01  1.028199479642E+01
  1.034368676520E+01  1.040574888579E+01  1.046818337910E+01  1.053099247938E+01
  1.059417843425E+01  1.065774350486E+01  1.072168996589E+01  1.078602010568E+01
  1.085073622632E+01  1.091584064368E+01  1.098133568754E+01  1.104722370166E+01
  1.111350704387E+01  1.118018808614E+01  1.124726921465E+01  1.131475282994E+01
  1.138264134692E+01  1.145093719500E+01  1.151964281817E+01  1.158876067508E+01
  1.165829323913E+01  1.172824299857E+01  1.179861245656E+01  1.186940413130E+01
  1.194062055608E+01  1.201226427942E+01  1.208433786510E+01  1.215684389229E+01
  1.222978495564E+01  1.230316366538E+01  1.237698264737E+01  1.245124454325E+01
  1.252595201051E+01  1.260110772257E+01  1.267671436891E+01  1.275277465512E+01
  1.282929130305E+01  1.290626705087E+01  1.298370465318E+01  1.306160688110E+01
  1.313997652238E+01  1.321881638152E+01  1.329812927981E+01  1.337791805549E+01
  1.345818556382E+01  1.353893467720E+01  1.362016828526E+01  1.370188929498E+01
  1.378410063075E+01  1.386680523453E+01  1.395000606594E+01  1.403370610233E+01
  1.411790833895E+01  1.420261578898E+01  1.428783148371E+01  1.437355847262E+01
  1.445979982345E+01  1.454655862239E+01  1.463383797413E+01  1.472164100197E+01
  1.480997084798E+01  1.489883067307E+01  1.498822365711E+01  1.507815299905E+01
  1.516862191705E+01  1.525963364855E+01  1.535119145044E+01  1.544329859914E+01
  1.553595839074E+01  1.562917414108E+01  1.572294918593E+01  1.581728688105E+01
  1.591219060233E+01  1.600766374595E+01  1.610370972842E+01  1.620033198679E+01
  1.629753397871E+01  1.639531918259E+01  1.649369109768E+01  1.659265324427E+01
  1.669220916373E+01  1.679236241871E+01  1.689311659323E+01  1.699447529279E+01
  1.709644214454E+01  1.719902079741E+01  1.730221492219E+01  1.740602821173E+01
  1.751046438100E+01  1.761552716728E+01  1.772122033029E+01  1.782754765227E+01
  1.793451293818E+01  1.804212001581E+01  1.815037273591E+01  1.825927497232E+01
  1.836883062216E+01  1.847904360589E+01  1.858991786752E+01  1.870145737473E+01
  1.881366611898E+01  1.892654811569E+01  1.904010740439E+01  1.915434804881E+01
  1.926927413711E+01  1.938488978193E+01  1.950119912062E+01  1.961820631534E+01
  1.973591555324E+01  1.985433104656E+01  1.997345703283E+01  2.009329777503E+01
  2.021385756168E+01  2.033514070705E+01  2.045715155129E+01  2.057989446060E+01
  2.070337382737E+01  2.082759407033E+01  2.095255963475E+01  2.107827499256E+01
  2.120474464252E+01  2.133197311037E+01  2.145996494903E+01  2.158872473873E+01
  2.171825708716E+01  2.184856662968E+01  2.197965802946E+01  2.211153597764E+01
  2.224420519350E+01  2.237767042466E+01  2.251193644721E+01  2.264700806590E+01
  2.278289011429E+01  2.291958745498E+01  2.305710497971E+01  2.319544760958E+01
  2.333462029524E+01  2.347462801701E+01  2.361547578512E+01  2.375716863983E+01
  2.389971165167E+01  2.404310992158E+01  2.418736858110E+01  2.433249279259E+01
  2.447848774935E+01  2.462535867584E+01  2.477311082790E+01  2.492174949287E+01
  2.507127998982E+01  2.522170766976E+01  2.537303791578E+01  2.552527614327E+01
  2.567842780013E+01  2.583249836694E+01  2.598749335714E+01  2.614341831728E+01
  2.630027882718E+01  2.645808050015E+01  2.661682898315E+01  2.677652995705E+01
  2.693718913679E+01  2.709881227161E+01  2.726140514524E+01  2.742497357611E+01
  2.758952341757E+01  2.775506055807E+01  2.792159092142E+01  2.808912046695E+01
  2.825765518975E+01  2.842720112089E+01  2.859776432761E+01  2.876935091358E+01
  2.894196701906E+01  2.911561882118E+01  2.929031253410E+01  2.946605440931E+01
  2.964285073576E+01  2.982070784018E+01  2.999963208722E+01  3.017962987974E+01
  3.036070765902E+01  3.054287190498E+01  3.072612913641E+01  3.091048591122E+01
  3.109594882669E+01  3.128252451965E+01  3.147021966677E+01  3.165904098477E+01
  3.184899523068E+01  3.204008920206E+01  3.223232973727E+01  3.242572371570E+01
  3.262027805799E+01  3.281599972634E+01  3.301289572470E+01  3.321097309905E+01
  3.341023893764E+01  3.361070037127E+01  3.381236457349E+01  3.401523876094E+01
  3.421933019350E+01  3.442464617466E+01  3.463119405171E+01  3.483898121602E+01
  3.504801510332E+01  3.525830319394E+01  3.546985301310E+01  3.568267213118E+01
  3.589676816397E+01  3.611214877295E+01  3.632882166559E+01  3.654679459558E+01
  3.676607536315E+01  3.698667181533E+01  3.720859184622E+01  3.743184339730E+01
  3.765643445769E+01  3.788237306443E+01  3.810966730282E+01  3.833832530664E+01
  3.856835525848E+01  3.879976539003E+01  3.903256398237E+01  3.926675936626E+01
  3.950235992246E+01  3.973937408199E+01  3.997781032648E+01  4.021767718844E+01
  4.045898325157E+01  4.070173715108E+01  4.094594757399E+01  4.119162325943E+01
  4.143877299899E+01  4.168740563699E+01  4.193753007081E+01  4.218915525123E+01
  4.244229018274E+01  4.269694392384E+01  4.295312558738E+01  4.321084434090E+01
  4.347010940695E+01  4.373093006339E+01  4.399331564377E+01  4.425727553763E+01
  4.452281919086E+01
</grid-data>
</grid>
<valence-charge total-charge="26" is-unscreening-charge="yes"
 rescaled-to-z-pseudo="no">
<radfunc>
<data npts="797">
  2.141035484062E+01  2.141884681388E+01  2.144437530115E+01  2.148710257674E+01
  2.154664715444E+01  2.162509671612E+01  2.172151862911E+01  2.183505223220E+01
  2.196957048742E+01  2.212072958110E+01  2.229140149769E+01  2.247722809443E+01
  2.268686090348E+01  2.291948741915E+01  2.317324327524E+01  2.344511867131E+01
  2.373092326410E+01  2.402532206499E+01  2.435691043897E+01  2.469095317944E+01
  2.506261694160E+01  2.542790926416E+01  2.582938640692E+01  2.627051993737E+01
  2.669199753689E+01  2.714943746976E+01  2.764574739689E+01  2.818402644911E+01
  2.868130206897E+01  2.921401012703E+01  2.978443181915E+01  3.039494008082E+01
  3.104799001851E+01  3.162651452927E+01  3.223782184966E+01  3.288341526094E+01
  3.356480141042E+01  3.428347606622E+01  3.504090690173E+01  3.583851288825E+01
  3.650643134241E+01  3.720156873299E+01  3.792451614772E+01  3.867579996217E+01
  3.945586811583E+01  4.026507477967E+01  4.110366330632E+01  4.197174736079E+01
  4.286929014026E+01  4.379608160766E+01  4.475171368493E+01  4.573555338081E+01
  4.649142132269E+01  4.726218528711E+01  4.804726972570E+01  4.884599324872E+01
  4.965756029240E+01  5.048105254204E+01  5.131542015949E+01  5.215947287485E+01
  5.301187101408E+01  5.387111654723E+01  5.473554425624E+01  5.560331313660E+01
  5.647239816316E+01  5.734058256779E+01  5.820545079396E+01  5.906438231191E+01
  5.991454649617E+01  6.075289878571E+01  6.157617836424E+01  6.238090761494E+01
  6.316339361854E+01  6.391973197591E+01  6.464581324554E+01  6.511093963619E+01
  6.555938738109E+01  6.598980083588E+01  6.640079249929E+01  6.679094570555E+01
  6.715881767059E+01  6.750294290580E+01  6.782183701130E+01  6.811400085923E+01
  6.837792517537E+01  6.861209552508E+01  6.881499770697E+01  6.898512355450E+01
  6.912097714261E+01  6.922108139245E+01  6.928398506362E+01  6.930827011849E+01
  6.929255943884E+01  6.923552486982E+01  6.913589556085E+01  6.899246656778E+01
  6.880410767455E+01  6.856977238685E+01  6.828850704419E+01  6.795945999060E+01
  6.758189073849E+01  6.715517905381E+01  6.667883388546E+01  6.615250205632E+01
  6.557597662841E+01  6.494920485035E+01  6.427229559190E+01  6.354552616704E+01
  6.276934844585E+01  6.194439415392E+01  6.107147925913E+01  6.015160734677E+01
  5.918597188760E+01  5.817595730775E+01  5.712313877591E+01  5.602928063111E+01
  5.489633338413E+01  5.372642923675E+01  5.252187607652E+01  5.128514991898E+01
  5.001888578598E+01  4.872586702602E+01  4.740901310181E+01  4.607136588998E+01
  4.471607455877E+01  4.334637911069E+01  4.196559269854E+01  4.057708284463E+01
  3.918425171328E+01  3.779051560684E+01  3.639928387330E+01  3.501393743036E+01
  3.432451462980E+01  3.363780712476E+01  3.295421990716E+01  3.227415215740E+01
  3.159799659058E+01  3.092613881331E+01  3.025895669282E+01  2.959681974052E+01
  2.894008851173E+01  2.828911402355E+01  2.764423719265E+01  2.700578829483E+01
  2.637408644806E+01  2.574943912072E+01  2.513214166664E+01  2.452247688848E+01
  2.392071463096E+01  2.332711140530E+01  2.274191004615E+01  2.216533940214E+01
  2.159761406124E+01  2.103893411176E+01  2.048948493987E+01  1.994943706433E+01
  1.941894600904E+01  1.889815221376E+01  1.838718098333E+01  1.788614247558E+01
  1.739513172784E+01  1.691422872195E+01  1.644349848747E+01  1.598299124263E+01
  1.553274257238E+01  1.509277364290E+01  1.466309145151E+01  1.424368911109E+01
  1.383454616775E+01  1.343562895043E+01  1.304689095098E+01  1.266827323320E+01
  1.229970486905E+01  1.194110340029E+01  1.159237532355E+01  1.125341659698E+01
  1.092411316614E+01  1.060434150722E+01  1.029396918507E+01  9.992855423996E+00
  9.700851688767E+00  9.417802273587E+00  9.143544896557E+00  8.877911297243E+00
  8.620727834937E+00  8.371816085209E+00  8.130993432397E+00  7.898073655706E+00
  7.672867506655E+00  7.455183275651E+00  7.244827345601E+00  7.041604730506E+00
  6.845319597118E+00  6.655775767855E+00  6.472777203279E+00  6.296128462582E+00
  6.125635140652E+00  5.961104280480E+00  5.802344759801E+00  5.649167651062E+00
  5.501386553969E+00  5.358817900040E+00  5.221281228787E+00  5.088599435338E+00
  4.960598989480E+00  4.837110126315E+00  4.717967008889E+00  4.603007863360E+00
  4.492075087423E+00  4.385015332924E+00  4.281679563680E+00  4.181923089628E+00
  4.085605578914E+00  3.992591050244E+00  3.902747846587E+00  3.815948590777E+00
  3.732070125561E+00  3.650993440007E+00  3.572603584382E+00  3.496789536901E+00
  3.423443914661E+00  3.352462609257E+00  3.283744790262E+00  3.217192864806E+00
  3.152712458972E+00  3.090212387805E+00  3.029604622925E+00  2.970804256574E+00
  2.913729462407E+00  2.858301453206E+00  2.804444435689E+00  2.752085562597E+00
  2.701154882243E+00  2.651585285690E+00  2.603312451762E+00  2.556274790049E+00
  2.510413382106E+00  2.465671921025E+00  2.421996649565E+00  2.379336297022E+00
  2.337642015020E+00  2.296867312402E+00  2.256967989383E+00  2.217902071159E+00
  2.179629741100E+00  2.142113273710E+00  2.105316967495E+00  2.069207077874E+00
  2.033751750277E+00  1.998920953552E+00  1.964686413800E+00  1.931021548745E+00
  1.897901402752E+00  1.865302582571E+00  1.833203193915E+00  1.801582778930E+00
  1.770422254645E+00  1.739703852469E+00  1.709411058777E+00  1.679528556660E+00
  1.650042168875E+00  1.620938802037E+00  1.592206392091E+00  1.563833851104E+00
  1.535811015390E+00  1.508128595004E+00  1.480778124618E+00  1.453751915792E+00
  1.427043010663E+00  1.400645137048E+00  1.374552664970E+00  1.348760564615E+00
  1.323264365715E+00  1.298060118349E+00  1.273144355171E+00  1.248514055042E+00
  1.224166608064E+00  1.200099782005E+00  1.176311690096E+00  1.152800760187E+00
  1.129565705254E+00  1.106605495212E+00  1.083919330050E+00  1.061506614232E+00
  1.039366932370E+00  1.017500026119E+00  9.959057722891E-01  9.745841621413E-01
  9.535352818355E-01  9.327592940104E-01  9.122564204631E-01  8.920269258994E-01
  8.720711027268E-01  8.523892568587E-01  8.329816945001E-01  8.138487098837E-01
  7.949905739258E-01  7.764075237711E-01  7.580997531941E-01  7.400674038271E-01
  7.223105571832E-01  7.048292274428E-01  6.876233549747E-01  6.706928005529E-01
  6.540373402549E-01  6.376566609946E-01  6.215503566688E-01  6.057179248860E-01
  5.901587642484E-01  5.748721721584E-01  5.598573431228E-01  5.451133675255E-01
  5.306392308430E-01  5.164338132770E-01  5.024958897766E-01  4.888241304268E-01
  4.754171011791E-01  4.622732648987E-01  4.493909827077E-01  4.367685156011E-01
  4.244040263133E-01  4.122955814165E-01  4.004411536287E-01  3.888386243137E-01
  3.774857861537E-01  3.663803459777E-01  3.555199277268E-01  3.449020755431E-01
  3.345242569634E-01  3.243838662050E-01  3.144782275294E-01  3.048045986693E-01
  2.953601743072E-01  2.861420895935E-01  2.771474237082E-01  2.683732033766E-01
  2.598164064879E-01  2.514739656479E-01  2.433427717365E-01  2.354196774463E-01
  2.277015007946E-01  2.201850286019E-01  2.128670199292E-01  2.057442094707E-01
  1.988133108930E-01  1.920710201188E-01  1.855140185483E-01  1.791389762163E-01
  1.729425548786E-01  1.669214110275E-01  1.610721988303E-01  1.553915729908E-01
  1.498761915302E-01  1.445227184852E-01  1.393278265229E-01  1.342881994699E-01
  1.294005347547E-01  1.246615457634E-01  1.200679641064E-01  1.156165417972E-01
  1.113040533422E-01  1.071272977411E-01  1.030831003989E-01  9.916831494867E-02
  9.537982498633E-02  9.171454571682E-02  8.816942551331E-02  8.474144738947E-02
  8.142763038571E-02  7.822503087034E-02  7.513074375650E-02  7.214190363600E-02
  6.925568583109E-02  6.646930736543E-02  6.378002785551E-02  6.118515032379E-02
  5.868202193508E-02  5.626803465749E-02  5.394062584968E-02  5.169727877571E-02
  4.953552304949E-02  4.745293501019E-02  4.544713803069E-02  4.351580276065E-02
  4.165664730617E-02  3.986743734802E-02  3.814598620020E-02  3.649015481109E-02
  3.489785170901E-02  3.336703289436E-02  3.189570168052E-02  3.048190848548E-02
  2.912375057646E-02  2.781937176966E-02  2.656696208742E-02  2.536475737474E-02
  2.421103887765E-02  2.310413278539E-02  2.204240973872E-02  2.102428430647E-02
  2.004821443252E-02  1.911270085524E-02  1.821628650172E-02  1.735755585854E-02
  1.653513432144E-02  1.574768752566E-02  1.499392065898E-02  1.427257775943E-02
  1.358244099937E-02  1.292232995786E-02  1.229110088308E-02  1.168764594638E-02
  1.111089248961E-02  1.055980226740E-02  1.003337068572E-02  9.530626038274E-03
  9.050628742023E-03  8.592470573144E-03  8.155273904676E-03  7.738190946975E-03
  7.340402992090E-03  6.961119663074E-03  6.599578169187E-03  6.255042567879E-03
  5.926803034369E-03  5.614175139592E-03  5.316499137203E-03  5.033139260264E-03
  4.763483028206E-03  4.506940564568E-03  4.262943925980E-03  4.030946442800E-03
  3.810422071750E-03  3.600864760861E-03  3.401787826992E-03  3.212723346115E-03
  3.033221556557E-03  2.862850275312E-03  2.701194327521E-03  2.547854989165E-03
  2.402449443009E-03  2.264610247765E-03  2.133984820451E-03  2.010234931879E-03
  1.893036215169E-03  1.782077687200E-03  1.677061282845E-03  1.577701401856E-03
  1.483724468230E-03  1.394868501873E-03  1.310882702380E-03  1.231527044725E-03
  1.156571886655E-03  1.085797587570E-03  1.018994138667E-03  9.559608041230E-04
  8.965057730849E-04  8.404458222419E-04  7.876059887365E-04  7.378192531907E-04
  6.909262326095E-04  6.467748829327E-04  6.052202110046E-04  5.661239957346E-04
  5.293545182245E-04  4.947863006405E-04  4.622998536128E-04  4.317814319477E-04
  4.031227984422E-04  3.762209955945E-04  3.509781250070E-04  3.273011342850E-04
  3.051016112340E-04  2.842955851677E-04  2.648033351385E-04  2.465492049081E-04
  2.294614244803E-04  2.134719380190E-04  1.985162379818E-04  1.845332053002E-04
  1.714649554415E-04  1.592566901917E-04  1.478565550006E-04  1.372155017345E-04
  1.272871566830E-04  1.180276936727E-04  1.093957121387E-04  1.013521200119E-04
  9.386002127960E-05  8.688460808114E-05  8.039305720215E-05  7.435443083340E-05
  6.873958146290E-05  6.352106077205E-05  5.867303240904E-05  5.417118851490E-05
  4.999266988016E-05  4.611598961191E-05  4.252096019384E-05  3.918862382363E-05
  3.610118591468E-05  3.324195165125E-05  3.059526548842E-05  2.814645349056E-05
  2.588176840425E-05  2.378833736406E-05  2.185411213161E-05  2.006782177091E-05
  1.841892766528E-05  1.689758078329E-05  1.549458110371E-05  1.420133911170E-05
  1.300983928083E-05  1.191260545783E-05  1.090266806938E-05  9.973533072475E-06
  9.119152572365E-06  8.333897034139E-06  7.612529016619E-06  6.950178359270E-06
  6.342318755179E-06  5.784745645402E-06  5.273555372150E-06  4.805125530495E-06
  4.376096460410E-06  3.983353823091E-06  3.624012207587E-06  3.295399715815E-06
  2.995043476041E-06  2.720656036903E-06  2.470122595952E-06  2.241489018586E-06
  2.032950605115E-06  1.842841565456E-06  1.669625162745E-06  1.511884488827E-06
  1.368313836273E-06  1.237710633163E-06  1.118967908439E-06  1.011067257147E-06
  9.130722763666E-07  8.241224440063E-07  7.434274140524E-07  6.702617031516E-07
  6.039597446901E-07  5.439112877551E-07  4.895571195424E-07  4.403850909065E-07
  3.959264258370E-07  3.557522966864E-07  3.194706479748E-07  2.867232525504E-07
  2.571829848037E-07  2.305512965005E-07  2.065558816395E-07  1.849485175293E-07
  1.655030700420E-07  1.480136517188E-07  1.322929220899E-07  1.181705202235E-07
  1.054916201356E-07  9.411560028185E-08  8.391481890487E-08  7.477348754199E-08
  6.658663549246E-08  5.925915851619E-08  5.270494548042E-08  4.684607709009E-08
  4.161209123360E-08  3.693930984845E-08  3.277022256166E-08  2.905292269037E-08