Xe    ONCVPSP-4.0.1  r_core=   1.40265   1.40265   1.40265   1.40265
54.0000     26.0000      220131    zatom,zion,pspd
8      11   3     4   600     0    pspcod,pspxc,lmax,lloc,mmax,r2well
5.99000000  3.00000000  0.00000000    rchrg fchrg qchrg
2     2     2     2     0    nproj
1     1           extension_switch
0                         1.1502987993296E+01  1.8200944708376E+00
1  0.0000000000000E+00  2.3342739963184E-09 -5.1134007722498E-09
2  1.0000000000000E-02  9.2526277397592E-02 -5.0305525395517E-03
3  2.0000000000000E-02  1.8481064534680E-01 -1.0023483705164E-02
4  3.0000000000000E-02  2.7661091641257E-01 -1.4939105328025E-02
5  4.0000000000000E-02  3.6768437277652E-01 -1.9733655534500E-02
6  5.0000000000000E-02  4.5778756440443E-01 -2.4357410256957E-02
7  6.0000000000000E-02  5.4667618153286E-01 -2.8752969031563E-02
8  7.0000000000000E-02  6.3410502343428E-01 -3.2853767016021E-02
9  8.0000000000000E-02  7.1982808308586E-01 -3.6582860046814E-02
10  9.0000000000000E-02  8.0359876454396E-01 -3.9852023370981E-02
11  1.0000000000000E-01  8.8517024657594E-01 -4.2561197563363E-02
12  1.1000000000000E-01  9.6429600249134E-01 -4.4598307229051E-02
13  1.2000000000000E-01  1.0407304822248E+00 -4.5839469561030E-02
14  1.3000000000000E-01  1.1142299586361E+00 -4.6149600858156E-02
15  1.4000000000000E-01  1.1845535357987E+00 -4.5383419900716E-02
16  1.5000000000000E-01  1.2514643128340E+00 -4.3386837828594E-02
17  1.6000000000000E-01  1.3147306927123E+00 -3.9998715070719E-02
18  1.7000000000000E-01  1.3741278214693E+00 -3.5052957131172E-02
19  1.8000000000000E-01  1.4294391395663E+00 -2.8380912838708E-02
20  1.9000000000000E-01  1.4804580237402E+00 -1.9814031192078E-02
21  2.0000000000000E-01  1.5269894947188E+00 -9.1867263497697E-03
22  2.1000000000000E-01  1.5688519636857E+00  3.6606052333502E-03
23  2.2000000000000E-01  1.6058789884260E+00  1.8878475901629E-02
24  2.3000000000000E-01  1.6379210087191E+00  3.6605169621117E-02
25  2.4000000000000E-01  1.6648470297977E+00  5.6963641796518E-02
26  2.5000000000000E-01  1.6865462225885E+00  8.0058521733683E-02
27  2.6000000000000E-01  1.7029294099997E+00  1.0597328237369E-01
28  2.7000000000000E-01  1.7139304097143E+00  1.3476763950344E-01
29  2.8000000000000E-01  1.7195072057710E+00  1.6647523887171E-01
30  2.9000000000000E-01  1.7196429236335E+00  2.0110168457950E-01
31  3.0000000000000E-01  1.7143465864164E+00  2.3862295586907E-01
32  3.1000000000000E-01  1.7036536334000E+00  2.7898425213051E-01
33  3.2000000000000E-01  1.6876261858539E+00  3.2209929772902E-01
34  3.3000000000000E-01  1.6663530494230E+00  3.6785012929704E-01
35  3.4000000000000E-01  1.6399494468332E+00  4.1608737862179E-01
36  3.5000000000000E-01  1.6085564793394E+00  4.6663105438880E-01
37  3.6000000000000E-01  1.5723403200856E+00  5.1927181602607E-01
38  3.7000000000000E-01  1.5314911472686E+00  5.7377272294459E-01
39  3.8000000000000E-01  1.4862218295973E+00  6.2987143280413E-01
40  3.9000000000000E-01  1.4367663809197E+00  6.8728281325790E-01
41  4.0000000000000E-01  1.3833782049618E+00  7.4570192314684E-01
42  4.1000000000000E-01  1.3263281547958E+00  8.0480731151192E-01
43  4.2000000000000E-01  1.2659024348505E+00  8.6426457624094E-01
44  4.3000000000000E-01  1.2024003759278E+00  9.2373011881318E-01
45  4.4000000000000E-01  1.1361321157373E+00  9.8285502757566E-01
46  4.5000000000000E-01  1.0674162188577E+00  1.0412890193738E+00
47  4.6000000000000E-01  9.9657727075434E-01  1.0986843682335E+00
48  4.7000000000000E-01  9.2394348049987E-01  1.1546997501847E+00
49  4.8000000000000E-01  8.4984432616931E-01  1.2090039352307E+00
50  4.9000000000000E-01  7.7460827551343E-01  1.2612792608657E+00
51  5.0000000000000E-01  6.9856061249286E-01  1.3112248263683E+00
52  5.1000000000000E-01  6.2202139761674E-01  1.3585593532432E+00
53  5.2000000000000E-01  5.4530358683335E-01  1.4030236645295E+00
54  5.3000000000000E-01  4.6871133003435E-01  1.4443827440760E+00
55  5.4000000000000E-01  3.9253846613986E-01  1.4824273461322E+00
56  5.5000000000000E-01  3.1706722731903E-01  1.5169751355114E+00
57  5.6000000000000E-01  2.4256716026694E-01  1.5478713489284E+00
58  5.7000000000000E-01  1.6929426770837E-01  1.5749889786805E+00
59  5.8000000000000E-01  9.7490368537481E-02  1.5982284903799E+00
60  5.9000000000000E-01  2.7382670338843E-02  1.6175170967199E+00
61  6.0000000000000E-01 -4.0816456425271E-02  1.6328076190444E+00
62  6.1000000000000E-01 -1.0690951743094E-01  1.6440769775406E+00
63  6.2000000000000E-01 -1.7071376533374E-01  1.6513243590039E+00
64  6.3000000000000E-01 -2.3206092431912E-01  1.6545691181137E+00
65  6.4000000000000E-01 -2.9079679294132E-01  1.6538484738541E+00
66  6.5000000000000E-01 -3.4678075189313E-01  1.6492150669693E+00
67  6.6000000000000E-01 -3.9988520472918E-01  1.6407344470429E+00
68  6.7000000000000E-01 -4.4999498022701E-01  1.6284825588670E+00
69  6.8000000000000E-01 -4.9700672499508E-01  1.6125432971662E+00
70  6.9000000000000E-01 -5.4082831412159E-01  1.5930061964788E+00
71  7.0000000000000E-01 -5.8137830611846E-01  1.5699643190872E+00
72  7.1000000000000E-01 -6.1858546618363E-01  1.5435123984280E+00
73  7.2000000000000E-01 -6.5238837892991E-01  1.5137452884849E+00
74  7.3000000000000E-01 -6.8273516827552E-01  1.4807567614487E+00
75  7.4000000000000E-01 -7.0958333823870E-01  1.4446386865652E+00
76  7.5000000000000E-01 -7.3289974401843E-01  1.4054806128170E+00
77  7.6000000000000E-01 -7.5266069807817E-01  1.3633697671117E+00
78  7.7000000000000E-01 -7.6885221109073E-01  1.3183914682321E+00
79  7.8000000000000E-01 -7.8147036266797E-01  1.2706299452103E+00
80  7.9000000000000E-01 -7.9052179190967E-01  1.2201695372843E+00
81  8.0000000000000E-01 -7.9602429308388E-01  1.1670962414581E+00
82  8.1000000000000E-01 -7.9800749731660E-01  1.1114995631827E+00
83  8.2000000000000E-01 -7.9651361713605E-01  1.0534746160710E+00
84  8.3000000000000E-01 -7.9159822719491E-01  9.9312440808606E-01
85  8.4000000000000E-01 -7.8333105157908E-01  9.3056224452866E-01
86  8.5000000000000E-01 -7.7179672588971E-01  8.6591417258837E-01
87  8.6000000000000E-01 -7.5709550082528E-01  7.9932138836671E-01
88  8.7000000000000E-01 -7.3934385334736E-01  7.3094252526175E-01
89  8.8000000000000E-01 -7.1867497172175E-01  6.6095574249992E-01
90  8.9000000000000E-01 -6.9523908180238E-01  5.8956053445571E-01
91  9.0000000000000E-01 -6.6920358386475E-01  5.1697918520866E-01
92  9.1000000000000E-01 -6.4075297207563E-01  4.4345779850370E-01
93  9.2000000000000E-01 -6.1008851226049E-01  3.6926684080997E-01
94  9.3000000000000E-01 -5.7742765793855E-01  2.9470114438323E-01
95  9.4000000000000E-01 -5.4300318955398E-01  2.2007932794865E-01
96  9.5000000000000E-01 -5.0706206734424E-01  1.4574260462292E-01
97  9.6000000000000E-01 -4.6986399423849E-01  7.2052959741832E-02
98  9.7000000000000E-01 -4.3167969144613E-01 -6.0930492561061E-04
99  9.8000000000000E-01 -3.9278889584279E-01 -7.1848649803227E-02
100  9.9000000000000E-01 -3.5347809474724E-01 -1.4125797374699E-01
101  1.0000000000000E+00 -3.1403802006157E-01 -2.0842284837382E-01
102  1.0100000000000E+00 -2.7476092987094E-01 -2.7292625714540E-01
103  1.0200000000000E+00 -2.3593771133099E-01 -3.3435377284939E-01
104  1.0300000000000E+00 -1.9785484386681E-01 -3.9229909520699E-01
105  1.0400000000000E+00 -1.6079126624070E-01 -4.4636985981245E-01
106  1.0500000000000E+00 -1.2501519480722E-01 -4.9619362072360E-01
107  1.0600000000000E+00 -9.0780943153205E-02 -5.4142390201805E-01
108  1.0700000000000E+00 -5.8325795241292E-02 -5.8174620868686E-01
109  1.0800000000000E+00 -2.7866985072572E-02 -6.1688388449771E-01
110  1.0900000000000E+00  4.0116428676124E-04 -6.4660370403735E-01
111  1.1000000000000E+00  2.6309890724654E-02 -6.7072108807378E-01
112  1.1100000000000E+00  4.9718382899234E-02 -6.8910483567950E-01
113  1.1200000000000E+00  7.0515863991091E-02 -7.0168127315139E-01
114  1.1300000000000E+00  8.8623327939593E-02 -7.0843772859533E-01
115  1.1400000000000E+00  1.0399489202877E-01 -7.0942525188539E-01
116  1.1500000000000E+00  1.1661873587592E-01 -7.0476051247441E-01
117  1.1600000000000E+00  1.2651760375184E-01 -6.9462682184023E-01
118  1.1700000000000E+00  1.3374885467197E-01 -6.7927424308453E-01
119  1.1800000000000E+00  1.3840405269838E-01 -6.5901876708204E-01
120  1.1900000000000E+00  1.4060809909426E-01 -6.3424055442300E-01
121  1.2000000000000E+00  1.4051790396251E-01 -6.0538122882687E-01
122  1.2100000000000E+00  1.3832034195634E-01 -5.7293955691060E-01
123  1.2200000000000E+00  1.3422586043064E-01 -5.3745630257281E-01
124  1.2300000000000E+00  1.2846098673212E-01 -4.9949678739422E-01
125  1.2400000000000E+00  1.2126466874152E-01 -4.5964357184663E-01
126  1.2500000000000E+00  1.1288490382795E-01 -4.1848996750246E-01
127  1.2600000000000E+00  1.0357520660420E-01 -3.7663319163615E-01
128  1.2700000000000E+00  9.3590965636263E-02 -3.3466726339815E-01
129  1.2800000000000E+00  8.3185743978916E-02 -2.9317575276637E-01
130  1.2900000000000E+00  7.2607579396259E-02 -2.5272449605049E-01
131  1.3000000000000E+00  6.2095339742823E-02 -2.1385439133722E-01
132  1.3100000000000E+00  5.1875193615582E-02 -1.7707440021820E-01
133  1.3200000000000E+00  4.2157197040700E-02 -1.4285473206856E-01
134  1.3300000000000E+00  3.3132269862958E-02 -1.1162088795308E-01
135  1.3400000000000E+00  2.4962815173338E-02 -8.3731169133943E-02
136  1.3500000000000E+00  1.7783021759236E-02 -5.9478069819833E-02
137  1.3600000000000E+00  1.1719583910229E-02 -3.9143639826838E-02
138  1.3700000000000E+00  6.8678690671386E-03 -2.2940398400237E-02
139  1.3800000000000E+00  3.2914217338844E-03 -1.1011029045291E-02
140  1.3900000000000E+00  1.0115754006061E-03 -3.3941797201458E-03
141  1.4000000000000E+00  6.4865941770990E-05 -2.1874297026217E-04
142  1.4100000000000E+00 -5.7686502085180E-06  1.9486154823572E-05
143  1.4200000000000E+00 -2.3802376929536E-07  7.9992495397590E-07
144  1.43  0. -0.
145  1.44  0.  0.
146  1.45  0.  0.
147  1.46  0.  0.
148  1.47  0.  0.
149  1.48  0.  0.
150  1.49  0.  0.
151  1.50  0.  0.
152  1.51  0.  0.
153  1.52  0.  0.
154  1.53  0.  0.
155  1.54  0.  0.
156  1.55  0.  0.
157  1.56  0.  0.
158  1.57  0.  0.
159  1.58  0.  0.
160  1.59  0.  0.
161  1.60  0.  0.
162  1.61  0.  0.
163  1.62  0.  0.
164  1.63  0.  0.
165  1.64  0.  0.
166  1.65  0.  0.
167  1.66  0.  0.
168  1.67  0.  0.
169  1.68  0.  0.
170  1.69  0.  0.
171  1.70  0.  0.
172  1.71  0.  0.
173  1.72  0.  0.
174  1.73  0.  0.
175  1.74  0.  0.
176  1.75  0.  0.
177  1.76  0.  0.
178  1.77  0.  0.
179  1.78  0.  0.
180  1.79  0.  0.
181  1.80  0.  0.
182  1.81  0.  0.
183  1.82  0.  0.
184  1.83  0.  0.
185  1.84  0.  0.
186  1.85  0.  0.
187  1.86  0.  0.
188  1.87  0.  0.
189  1.88  0.  0.
190  1.89  0.  0.
191  1.90  0.  0.
192  1.91  0.  0.
193  1.92  0.  0.
194  1.93  0.  0.
195  1.94  0.  0.
196  1.95  0.  0.
197  1.96  0.  0.
198  1.97  0.  0.
199  1.98  0.  0.
200  1.99  0.  0.
201  2.00  0.  0.
202  2.01  0.  0.
203  2.02  0.  0.
204  2.03  0.  0.
205  2.04  0.  0.
206  2.05  0.  0.
207  2.06  0.  0.
208  2.07  0.  0.
209  2.08  0.  0.
210  2.09  0.  0.
211  2.10  0.  0.
212  2.11  0.  0.
213  2.12  0.  0.
214  2.13  0.  0.
215  2.14  0.  0.
216  2.15  0.  0.
217  2.16  0.  0.
218  2.17  0.  0.
219  2.18  0.  0.
220  2.19  0.  0.
221  2.20  0.  0.
222  2.21  0.  0.
223  2.22  0.  0.
224  2.23  0.  0.
225  2.24  0.  0.
226  2.25  0.  0.
227  2.26  0.  0.
228  2.27  0.  0.
229  2.28  0.  0.
230  2.29  0.  0.
231  2.30  0.  0.
232  2.31  0.  0.
233  2.32  0.  0.
234  2.33  0.  0.
235  2.34  0.  0.
236  2.35  0.  0.
237  2.36  0.  0.
238  2.37  0.  0.
239  2.38  0.  0.
240  2.39  0.  0.
241  2.40  0.  0.
242  2.41  0.  0.
243  2.42  0.  0.
244  2.43  0.  0.
245  2.44  0.  0.
246  2.45  0.  0.
247  2.46  0.  0.
248  2.47  0.  0.
249  2.48  0.  0.
250  2.49  0.  0.
251  2.50  0.  0.
252  2.51  0.  0.
253  2.52  0.  0.
254  2.53  0.  0.
255  2.54  0.  0.
256  2.55  0.  0.
257  2.56  0.  0.
258  2.57  0.  0.
259  2.58  0.  0.
260  2.59  0.  0.
261  2.60  0.  0.
262  2.61  0.  0.
263  2.62  0.  0.
264  2.63  0.  0.
265  2.64  0.  0.
266  2.65  0.  0.
267  2.66  0.  0.
268  2.67  0.  0.
269  2.68  0.  0.
270  2.69  0.  0.
271  2.70  0.  0.
272  2.71  0.  0.
273  2.72  0.  0.
274  2.73  0.  0.
275  2.74  0.  0.
276  2.75  0.  0.
277  2.76  0.  0.
278  2.77  0.  0.
279  2.78  0.  0.
280  2.79  0.  0.
281  2.80  0.  0.
282  2.81  0.  0.
283  2.82  0.  0.
284  2.83  0.  0.
285  2.84  0.  0.
286  2.85  0.  0.
287  2.86  0.  0.
288  2.87  0.  0.
289  2.88  0.  0.
290  2.89  0.  0.
291  2.90  0.  0.
292  2.91  0.  0.
293  2.92  0.  0.
294  2.93  0.  0.
295  2.94  0.  0.
296  2.95  0.  0.
297  2.96  0.  0.
298  2.97  0.  0.
299  2.98  0.  0.
300  2.99  0.  0.
301  3.00  0.  0.
302  3.01  0.  0.
303  3.02  0.  0.
304  3.03  0.  0.
305  3.04  0.  0.
306  3.05  0.  0.
307  3.06  0.  0.
308  3.07  0.  0.
309  3.08  0.  0.
310  3.09  0.  0.
311  3.10  0.  0.
312  3.11  0.  0.
313  3.12  0.  0.
314  3.13  0.  0.
315  3.14  0.  0.
316  3.15  0.  0.
317  3.16  0.  0.
318  3.17  0.  0.
319  3.18  0.  0.
320  3.19  0.  0.
321  3.20  0.  0.
322  3.21  0.  0.
323  3.22  0.  0.
324  3.23  0.  0.
325  3.24  0.  0.
326  3.25  0.  0.
327  3.26  0.  0.
328  3.27  0.  0.
329  3.28  0.  0.
330  3.29  0.  0.
331  3.30  0.  0.
332  3.31  0.  0.
333  3.32  0.  0.
334  3.33  0.  0.
335  3.34  0.  0.
336  3.35  0.  0.
337  3.36  0.  0.
338  3.37  0.  0.
339  3.38  0.  0.
340  3.39  0.  0.
341  3.40  0.  0.
342  3.41  0.  0.
343  3.42  0.  0.
344  3.43  0.  0.
345  3.44  0.  0.
346  3.45  0.  0.
347  3.46  0.  0.
348  3.47  0.  0.
349  3.48  0.  0.
350  3.49  0.  0.
351  3.50  0.  0.
352  3.51  0.  0.
353  3.52  0.  0.
354  3.53  0.  0.
355  3.54  0.  0.
356  3.55  0.  0.
357  3.56  0.  0.
358  3.57  0.  0.
359  3.58  0.  0.
360  3.59  0.  0.
361  3.60  0.  0.
362  3.61  0.  0.
363  3.62  0.  0.
364  3.63  0.  0.
365  3.64  0.  0.
366  3.65  0.  0.
367  3.66  0.  0.
368  3.67  0.  0.
369  3.68  0.  0.
370  3.69  0.  0.
371  3.70  0.  0.
372  3.71  0.  0.
373  3.72  0.  0.
374  3.73  0.  0.
375  3.74  0.  0.
376  3.75  0.  0.
377  3.76  0.  0.
378  3.77  0.  0.
379  3.78  0.  0.
380  3.79  0.  0.
381  3.80  0.  0.
382  3.81  0.  0.
383  3.82  0.  0.
384  3.83  0.  0.
385  3.84  0.  0.
386  3.85  0.  0.
387  3.86  0.  0.
388  3.87  0.  0.
389  3.88  0.  0.
390  3.89  0.  0.
391  3.90  0.  0.
392  3.91  0.  0.
393  3.92  0.  0.
394  3.93  0.  0.
395  3.94  0.  0.
396  3.95  0.  0.
397  3.96  0.  0.
398  3.97  0.  0.
399  3.98  0.  0.
400  3.99  0.  0.
401  4.00  0.  0.
402  4.01  0.  0.
403  4.02  0.  0.
404  4.03  0.  0.
405  4.04  0.  0.
406  4.05  0.  0.
407  4.06  0.  0.
408  4.07  0.  0.
409  4.08  0.  0.
410  4.09  0.  0.
411  4.10  0.  0.
412  4.11  0.  0.
413  4.12  0.  0.
414  4.13  0.  0.
415  4.14  0.  0.
416  4.15  0.  0.
417  4.16  0.  0.
418  4.17  0.  0.
419  4.18  0.  0.
420  4.19  0.  0.
421  4.20  0.  0.
422  4.21  0.  0.
423  4.22  0.  0.
424  4.23  0.  0.
425  4.24  0.  0.
426  4.25  0.  0.
427  4.26  0.  0.
428  4.27  0.  0.
429  4.28  0.  0.
430  4.29  0.  0.
431  4.30  0.  0.
432  4.31  0.  0.
433  4.32  0.  0.
434  4.33  0.  0.
435  4.34  0.  0.
436  4.35  0.  0.
437  4.36  0.  0.
438  4.37  0.  0.
439  4.38  0.  0.
440  4.39  0.  0.
441  4.40  0.  0.
442  4.41  0.  0.
443  4.42  0.  0.
444  4.43  0.  0.
445  4.44  0.  0.
446  4.45  0.  0.
447  4.46  0.  0.
448  4.47  0.  0.
449  4.48  0.  0.
450  4.49  0.  0.
451  4.50  0.  0.
452  4.51  0.  0.
453  4.52  0.  0.
454  4.53  0.  0.
455  4.54  0.  0.
456  4.55  0.  0.
457  4.56  0.  0.
458  4.57  0.  0.
459  4.58  0.  0.
460  4.59  0.  0.
461  4.60  0.  0.
462  4.61  0.  0.
463  4.62  0.  0.
464  4.63  0.  0.
465  4.64  0.  0.
466  4.65  0.  0.
467  4.66  0.  0.
468  4.67  0.  0.
469  4.68  0.  0.
470  4.69  0.  0.
471  4.70  0.  0.
472  4.71  0.  0.
473  4.72  0.  0.
474  4.73  0.  0.
475  4.74  0.  0.
476  4.75  0.  0.
477  4.76  0.  0.
478  4.77  0.  0.
479  4.78  0.  0.
480  4.79  0.  0.
481  4.80  0.  0.
482  4.81  0.  0.
483  4.82  0.  0.
484  4.83  0.  0.
485  4.84  0.  0.
486  4.85  0.  0.
487  4.86  0.  0.
488  4.87  0.  0.
489  4.88  0.  0.
490  4.89  0.  0.
491  4.90  0.  0.
492  4.91  0.  0.
493  4.92  0.  0.
494  4.93  0.  0.
495  4.94  0.  0.
496  4.95  0.  0.
497  4.96  0.  0.
498  4.97  0.  0.
499  4.98  0.  0.
500  4.99  0.  0.
501  5.00  0.  0.
502  5.01  0.  0.
503  5.02  0.  0.
504  5.03  0.  0.
505  5.04  0.  0.
506  5.05  0.  0.
507  5.06  0.  0.
508  5.07  0.  0.
509  5.08  0.  0.
510  5.09  0.  0.
511  5.10  0.  0.
512  5.11  0.  0.
513  5.12  0.  0.
514  5.13  0.  0.
515  5.14  0.  0.
516  5.15  0.  0.
517  5.16  0.  0.
518  5.17  0.  0.
519  5.18  0.  0.
520  5.19  0.  0.
521  5.20  0.  0.
522  5.21  0.  0.
523  5.22  0.  0.
524  5.23  0.  0.
525  5.24  0.  0.
526  5.25  0.  0.
527  5.26  0.  0.
528  5.27  0.  0.
529  5.28  0.  0.
530  5.29  0.  0.
531  5.30  0.  0.
532  5.31  0.  0.
533  5.32  0.  0.
534  5.33  0.  0.
535  5.34  0.  0.
536  5.35  0.  0.
537  5.36  0.  0.
538  5.37  0.  0.
539  5.38  0.  0.
540  5.39  0.  0.
541  5.40  0.  0.
542  5.41  0.  0.
543  5.42  0.  0.
544  5.43  0.  0.
545  5.44  0.  0.
546  5.45  0.  0.
547  5.46  0.  0.
548  5.47  0.  0.
549  5.48  0.  0.
550  5.49  0.  0.
551  5.50  0.  0.
552  5.51  0.  0.
553  5.52  0.  0.
554  5.53  0.  0.
555  5.54  0.  0.
556  5.55  0.  0.
557  5.56  0.  0.
558  5.57  0.  0.
559  5.58  0.  0.
560  5.59  0.  0.
561  5.60  0.  0.
562  5.61  0.  0.
563  5.62  0.  0.
564  5.63  0.  0.
565  5.64  0.  0.
566  5.65  0.  0.
567  5.66  0.  0.
568  5.67  0.  0.
569  5.68  0.  0.
570  5.69  0.  0.
571  5.70  0.  0.
572  5.71  0.  0.
573  5.72  0.  0.
574  5.73  0.  0.
575  5.74  0.  0.
576  5.75  0.  0.
577  5.76  0.  0.
578  5.77  0.  0.
579  5.78  0.  0.
580  5.79  0.  0.
581  5.80  0.  0.
582  5.81  0.  0.
583  5.82  0.  0.
584  5.83  0.  0.
585  5.84  0.  0.
586  5.85  0.  0.
587  5.86  0.  0.
588  5.87  0.  0.
589  5.88  0.  0.
590  5.89  0.  0.
591  5.90  0.  0.
592  5.91  0.  0.
593  5.92  0.  0.
594  5.93  0.  0.
595  5.94  0.  0.
596  5.95  0.  0.
597  5.96  0.  0.
598  5.97  0.  0.
599  5.98  0.  0.
600  5.99  0.  0.
1                         3.2130796627298E+00 -4.5129110177733E-01
1  0.0000000000000E+00 -3.9537762785979E-09 -8.8489633016942E-09
2  1.0000000000000E-02  2.8059525015769E-03 -3.8660581367306E-04
3  2.0000000000000E-02  1.1208359733815E-02 -1.5329223176251E-03
4  3.0000000000000E-02  2.5160873671454E-02 -3.3987005917288E-03
5  4.0000000000000E-02  4.4586259564370E-02 -5.9177000125277E-03
6  5.0000000000000E-02  6.9376423067843E-02 -8.9989308653736E-03
7  6.0000000000000E-02  9.9392466298003E-02 -1.2528356941914E-02
8  7.0000000000000E-02  1.3446479016702E-01 -1.6371022094560E-02
9  8.0000000000000E-02  1.7439326430640E-01 -2.0373555870594E-02
10  9.0000000000000E-02  2.1894748912359E-01 -2.4367005536917E-02
11  1.0000000000000E-01  2.6786717693900E-01 -2.8169935209745E-02
12  1.1000000000000E-01  3.2086268061928E-01 -3.1591727572786E-02
13  1.2000000000000E-01  3.7761569858859E-01 -3.4436019920158E-02
14  1.3000000000000E-01  4.3778018451681E-01 -3.6504204078892E-02
15  1.4000000000000E-01  5.0098348833807E-01 -3.7598919195219E-02
16  1.5000000000000E-01  5.6682775255785E-01 -3.7527467416706E-02
17  1.6000000000000E-01  6.3489158410505E-01 -3.6105085135598E-02
18  1.7000000000000E-01  7.0473201734997E-01 -3.3158006609822E-02
19  1.8000000000000E-01  7.7588677843721E-01 -2.8526262339759E-02
20  1.9000000000000E-01  8.4787685489838E-01 -2.2066161412880E-02
21  2.0000000000000E-01  9.2020936775831E-01 -1.3652414965593E-02
22  2.1000000000000E-01  9.9238073619427E-01 -3.1798667549140E-03
23  2.2000000000000E-01  1.0638801174272E+00  9.4351936332816E-03
24  2.3000000000000E-01  1.1341930971074E+00  2.4254149422737E-02
25  2.4000000000000E-01  1.2028055981962E+00  4.1315611413104E-02
26  2.5000000000000E-01  1.2692079694343E+00  6.0635402989304E-02
27  2.6000000000000E-01  1.3328992081179E+00  8.2206959607828E-02
28  2.7000000000000E-01  1.3933912662508E+00  1.0600211763657E-01
29  2.8000000000000E-01  1.4502133843808E+00  1.3197225881894E-01
30  2.9000000000000E-01  1.5029163936922E+00  1.6004976898646E-01
31  3.0000000000000E-01  1.5510769243601E+00  1.9014976314060E-01
32  3.1000000000000E-01  1.5943014568572E+00  2.2217202382046E-01
33  3.2000000000000E-01  1.6322301529156E+00  2.5600309588993E-01
34  3.3000000000000E-01  1.6645404042344E+00  2.9151847860448E-01
35  3.4000000000000E-01  1.6909500397729E+00  3.2858485510210E-01
36  3.5000000000000E-01  1.7112201365740E+00  3.6706230031606E-01
37  3.6000000000000E-01  1.7251573844492E+00  4.0680641069858E-01
38  3.7000000000000E-01  1.7326159614332E+00  4.4767030300620E-01
39  3.8000000000000E-01  1.7334988845665E+00  4.8950643462263E-01
40  3.9000000000000E-01  1.7277588091299E+00  5.3216820434225E-01
41  4.0000000000000E-01  1.7153982587564E+00  5.7551130003418E-01
42  4.1000000000000E-01  1.6964692787023E+00  6.1939476795232E-01
43  4.2000000000000E-01  1.6710725147292E+00  6.6368178742789E-01
44  4.3000000000000E-01  1.6393557303401E+00  7.0824014403884E-01
45  4.4000000000000E-01  1.6015117852615E+00  7.5294240384232E-01
46  4.5000000000000E-01  1.5577761078659E+00  7.9766580062934E-01
47  4.6000000000000E-01  1.5084237034388E+00  8.4229185715733E-01
48  4.7000000000000E-01  1.4537657486063E+00  8.8670576969610E-01
49  4.8000000000000E-01  1.3941458296508E+00  9.3079559274973E-01
50  4.9000000000000E-01  1.3299358886735E+00  9.7445126728624E-01
51  5.0000000000000E-01  1.2615319464641E+00  1.0175635410313E+00
52  5.1000000000000E-01  1.1893496743853E+00  1.0600228332120E+00
53  5.2000000000000E-01  1.1138198894846E+00  1.1017180984535E+00
54  5.3000000000000E-01  1.0353840473576E+00  1.1425357452593E+00
55  5.4000000000000E-01  9.5448980598316E-01  1.1823586636080E+00
56  5.5000000000000E-01  8.7158673086742E-01  1.2210654136784E+00
57  5.6000000000000E-01  7.8712220741829E-01  1.2585296236283E+00
58  5.7000000000000E-01  7.0153762063503E-01  1.2946196387845E+00
59  5.8000000000000E-01  6.1526485506814E-01  1.3291984576852E+00
60  5.9000000000000E-01  5.2872315975150E-01  1.3621239823260E+00
61  6.0000000000000E-01  4.4231641362735E-01  1.3932496008938E+00
62  6.1000000000000E-01  3.5643081709521E-01  1.4224251114622E+00
63  6.2000000000000E-01  2.7143302495660E-01  1.4494979848266E+00
64  6.3000000000000E-01  1.8766872545200E-01  1.4743149541401E+00
65  6.4000000000000E-01  1.0546165955110E-01  1.4967239085610E+00
66  6.5000000000000E-01  2.5113064425294E-02  1.5165760580218E+00
67  6.6000000000000E-01 -5.3098484646904E-02  1.5337283267503E+00
68  6.7000000000000E-01 -1.2891686857088E-01  1.5480459245978E+00
69  6.8000000000000E-01 -2.0210789741460E-01  1.5594050377875E+00
70  6.9000000000000E-01 -2.7245851120753E-01  1.5676955746315E+00
71  7.0000000000000E-01 -3.3977576294810E-01  1.5728238972450E+00
72  7.1000000000000E-01 -4.0388564193950E-01  1.5747154674917E+00
73  7.2000000000000E-01 -4.6463179768683E-01  1.5733173344106E+00
74  7.3000000000000E-01 -5.2187422502543E-01  1.5686003912902E+00
75  7.4000000000000E-01 -5.7548796989850E-01  1.5605613333735E+00
76  7.5000000000000E-01 -6.2536191229058E-01  1.5492242518825E+00
77  7.6000000000000E-01 -6.7139767832669E-01  1.5346418065490E+00
78  7.7000000000000E-01 -7.1350872757847E-01  1.5168959270142E+00
79  7.8000000000000E-01 -7.5161965433298E-01  1.4960980031408E+00
80  7.9000000000000E-01 -7.8566573316726E-01  1.4723885352483E+00
81  8.0000000000000E-01 -8.1559272985250E-01  1.4459362272908E+00
82  8.1000000000000E-01 -8.4135698863286E-01  1.4169365187683E+00
83  8.2000000000000E-01 -8.6292579655238E-01  1.3856095643843E+00
84  8.3000000000000E-01 -8.8027801501804E-01  1.3521976838258E+00
85  8.4000000000000E-01 -8.9340495847495E-01  1.3169623172028E+00
86  8.5000000000000E-01 -9.0231149021338E-01  1.2801805343251E+00
87  8.6000000000000E-01 -9.0701729620461E-01  1.2421411577810E+00
88  8.7000000000000E-01 -9.0755828973173E-01  1.2031405704188E+00
89  8.8000000000000E-01 -9.0398809268019E-01  1.1634782870275E+00
90  8.9000000000000E-01 -8.9637953388872E-01  1.1234523775173E+00
91  9.0000000000000E-01 -8.8482610110642E-01  1.0833548345081E+00
92  9.1000000000000E-01 -8.6944328099001E-01  1.0434669817673E+00
93  9.2000000000000E-01 -8.5036972129309E-01  1.0040550212791E+00
94  9.3000000000000E-01 -8.2776815099161E-01  9.6536581581767E-01
95  9.4000000000000E-01 -8.0182599754709E-01  9.2762300070861E-01
96  9.5000000000000E-01 -7.7275564577781E-01  8.9102351305505E-01
97  9.6000000000000E-01 -7.4079428978411E-01  8.5573461916700E-01
98  9.7000000000000E-01 -7.0620333790555E-01  8.2189151142143E-01
99  9.8000000000000E-01 -6.6926734058445E-01  7.8959553449831E-01
100  9.9000000000000E-01 -6.3029242203982E-01  7.5891308813223E-01
101  1.0000000000000E+00 -5.8960420855451E-01  7.2987523947973E-01
102  1.0100000000000E+00 -5.4754525864797E-01  7.0247806325871E-01
103  1.0200000000000E+00 -5.0447201315223E-01  6.7668371229754E-01
104  1.0300000000000E+00 -4.6075129589237E-01  6.5242220542114E-01
105  1.0400000000000E+00 -4.1675640796656E-01  6.2959390407133E-01
106  1.0500000000000E+00 -3.7286287022189E-01  6.0807263406115E-01
107  1.0600000000000E+00 -3.2944387910123E-01  5.8770939477950E-01
108  1.0700000000000E+00 -2.8686555030294E-01  5.6833658534232E-01
109  1.0800000000000E+00 -2.4548203242055E-01  5.4977266589751E-01
110  1.0900000000000E+00 -2.0563057863815E-01  5.3182716288115E-01
111  1.1000000000000E+00 -1.6762666851600E-01  5.1430591965723E-01
112  1.1100000000000E+00 -1.3175927373430E-01  4.9701648888677E-01
113  1.1200000000000E+00 -9.8286361312726E-02  4.7977356026566E-01
114  1.1300000000000E+00 -6.7430725229156E-02  4.6240431703660E-01
115  1.1400000000000E+00 -3.9376232583324E-02  4.4475361690607E-01
116  1.1500000000000E+00 -1.4264563507560E-02  4.2668889767612E-01
117  1.1600000000000E+00  7.8074848691230E-03  4.0810471486032E-01
118  1.1700000000000E+00  2.6790070866934E-02  3.8892682771348E-01
119  1.1800000000000E+00  4.2681709990504E-02  3.6911576137794E-01
120  1.1900000000000E+00  5.5529973937854E-02  3.4866978842611E-01
121  1.2000000000000E+00  6.5431451162621E-02  3.2762725027778E-01
122  1.2100000000000E+00  7.2530569425933E-02  3.0606736213288E-01
123  1.2200000000000E+00  7.7011868776070E-02  2.8409857518415E-01
124  1.2300000000000E+00  7.9090089887484E-02  2.6184467198638E-01
125  1.2400000000000E+00  7.9005427499300E-02  2.3944307851517E-01
126  1.2500000000000E+00  7.7019039990831E-02  2.1704417276469E-01
127  1.2600000000000E+00  7.3408175374804E-02  1.9481009698047E-01
128  1.2700000000000E+00  6.8460990472199E-02  1.7291311500413E-01
129  1.2800000000000E+00  6.2471150368616E-02  1.5153357339042E-01
130  1.2900000000000E+00  5.5732300184409E-02  1.3085753146565E-01
131  1.3000000000000E+00  4.8532503509358E-02  1.1107412926903E-01
132  1.3100000000000E+00  4.1148755516843E-02  9.2372776898074E-02
133  1.3200000000000E+00  3.3841546364110E-02  7.4940133791180E-02
134  1.3300000000000E+00  2.6850076733711E-02  5.8957410297580E-02
135  1.3400000000000E+00  2.0372666128817E-02  4.4583934394492E-02
136  1.3500000000000E+00  1.4568787735217E-02  3.1958137771861E-02
137  1.3600000000000E+00  9.6079773696013E-03  2.1244473339524E-02
138  1.3700000000000E+00  5.6166573947062E-03  1.2588442940260E-02
139  1.3800000000000E+00  2.6764941350318E-03  6.1153553767989E-03
140  1.3900000000000E+00  8.1521332567530E-04  1.9095239548893E-03
141  1.4000000000000E+00  5.1520124341448E-05  1.2489543852816E-04
142  1.4100000000000E+00 -4.5626458412859E-06 -1.1216503272407E-05
143  1.4200000000000E+00 -1.9103601881896E-07 -4.5313862382416E-07
144  1.43  0.  0.
145  1.44  0.  0.
146  1.45  0.  0.
147  1.46  0.  0.
148  1.47  0.  0.
149  1.48  0.  0.
150  1.49  0.  0.
151  1.50  0.  0.
152  1.51  0.  0.
153  1.52  0.  0.
154  1.53  0.  0.
155  1.54  0.  0.
156  1.55  0.  0.
157  1.56  0.  0.
158  1.57  0.  0.
159  1.58  0.  0.
160  1.59  0.  0.
161  1.60  0.  0.
162  1.61  0.  0.
163  1.62  0.  0.
164  1.63  0.  0.
165  1.64  0.  0.
166  1.65  0.  0.
167  1.66  0.  0.
168  1.67  0.  0.
169  1.68  0.  0.
170  1.69  0.  0.
171  1.70  0.  0.
172  1.71  0.  0.
173  1.72  0.  0.
174  1.73  0.  0.
175  1.74  0.  0.
176  1.75  0.  0.
177  1.76  0.  0.
178  1.77  0.  0.
179  1.78  0.  0.
180  1.79  0.  0.
181  1.80  0.  0.
182  1.81  0.  0.
183  1.82  0.  0.
184  1.83  0.  0.
185  1.84  0.  0.
186  1.85  0.  0.
187  1.86  0.  0.
188  1.87  0.  0.
189  1.88  0.  0.
190  1.89  0.  0.
191  1.90  0.  0.
192  1.91  0.  0.
193  1.92  0.  0.
194  1.93  0.  0.
195  1.94  0.  0.
196  1.95  0.  0.
197  1.96  0.  0.
198  1.97  0.  0.
199  1.98  0.  0.
200  1.99  0.  0.
201  2.00  0.  0.
202  2.01  0.  0.
203  2.02  0.  0.
204  2.03  0.  0.
205  2.04  0.  0.
206  2.05  0.  0.
207  2.06  0.  0.
208  2.07  0.  0.
209  2.08  0.  0.
210  2.09  0.  0.
211  2.10  0.  0.
212  2.11  0.  0.
213  2.12  0.  0.
214  2.13  0.  0.
215  2.14  0.  0.
216  2.15  0.  0.
217  2.16  0.  0.
218  2.17  0.  0.
219  2.18  0.  0.
220  2.19  0.  0.
221  2.20  0.  0.
222  2.21  0.  0.
223  2.22  0.  0.
224  2.23  0.  0.
225  2.24  0.  0.
226  2.25  0.  0.
227  2.26  0.  0.
228  2.27  0.  0.
229  2.28  0.  0.
230  2.29  0.  0.
231  2.30  0.  0.
232  2.31  0.  0.
233  2.32  0.  0.
234  2.33  0.  0.
235  2.34  0.  0.
236  2.35  0.  0.
237  2.36  0.  0.
238  2.37  0.  0.
239  2.38  0.  0.
240  2.39  0.  0.
241  2.40  0.  0.
242  2.41  0.  0.
243  2.42  0.  0.
244  2.43  0.  0.
245  2.44  0.  0.
246  2.45  0.  0.
247  2.46  0.  0.
248  2.47  0.  0.
249  2.48  0.  0.
250  2.49  0.  0.
251  2.50  0.  0.
252  2.51  0.  0.
253  2.52  0.  0.
254  2.53  0.  0.
255  2.54  0.  0.
256  2.55  0.  0.
257  2.56  0.  0.
258  2.57  0.  0.
259  2.58  0.  0.
260  2.59  0.  0.
261  2.60  0.  0.
262  2.61  0.  0.
263  2.62  0.  0.
264  2.63  0.  0.
265  2.64  0.  0.
266  2.65  0.  0.
267  2.66  0.  0.
268  2.67  0.  0.
269  2.68  0.  0.
270  2.69  0.  0.
271  2.70  0.  0.
272  2.71  0.  0.
273  2.72  0.  0.
274  2.73  0.  0.
275  2.74  0.  0.