<?xml version="1.0" encoding="UTF-8" ?>
<psml version="1.1" energy_unit="hartree" length_unit="bohr"
 uuid="bfa05910-c73e-11ed-4e90-13e7d7f798c4"
 xmlns="http://esl.cecam.org/PSML/ns/1.1">
<provenance creator="ONCVPSP-4.0.1+psml-4.0.1-76 (scalar-relativistic)"
 date="2023-03-20">
<annotation action="semilocal-pseudopotential-generation"
 action-cont="projectors-generation" />
<input-file name="oncvpsp-input">
<![CDATA[# atsym z nc nv iexc psfile
Xe 54 9 2 4 both
# n l f
1 0 2.0
2 0 2.0
2 1 6.0
3 0 2.0
3 1 6.0
3 2 10.0
4 0 2.0
4 1 6.0
4 2 10.0
5 0 2.0
5 1 6.0
# lmax
3
# l rc ep ncon nbas qcut
0 2.0 0.0 4 7 4.0
1 1.8 0.0 4 8 6.0
2 2.0 0.05 4 7 6.0
3 2.0 0.05 4 8 6.0
# lloc lpopt rc5 dvloc0
4 5 1.8 0.0
# l nproj debl
0 2 4.0
1 2 3.0
2 2 4.0
3 2 2.0
# icmod fcfact rcfact
3 8.0 1.23
# epsh1 epsh2 depsh
-12.0 12.0 0.02
# rlmax drl
6.0 0.01
0
]]>
</input-file>
</provenance>
<pseudo-atom-spec atomic-label="Xe" atomic-number="54" z-pseudo="8"
 flavor="Hamann&apos;s oncvpsp" relativity="scalar" spin-dft="no"
 core-corrections="yes">
<annotation pseudo-energy="-15.7233700569" cutoff_hint_low="79"
 cutoff_hint_normal="84" cutoff_hint_high="90" />
<exchange-correlation>
<annotation oncvpsp-xc-code="4" oncvpsp-xc-type="GGA -- Perdew-Burke-Ernzerhof" />
<libxc-info number-of-functionals="2">
<functional name="Perdew, Burke &amp; Ernzerhof (GGA)" type="exchange" id="101" />
<functional name="Perdew, Burke &amp; Ernzerhof (GGA)" type="correlation"
 id="130" />
</libxc-info>
</exchange-correlation>
<valence-configuration total-valence-charge="8">
<shell n="5" l="s" occupation="2" />
<shell n="5" l="p" occupation="6" />
</valence-configuration>
</pseudo-atom-spec>
<grid npts="797">
<annotation type="sampled from oncvpsp log grid"
 recipe="r(i:1..N) = r1*exp(a*(i-1)) + r=0; resampled"
 recipe-cont="r1: scale; a: step" scale="0.925925925926E-05"
 step="0.598207167755E-02" delta="0.500000000000E-02" rmax="44.5228191909" />
<grid-data>
  0.000000000000E+00  5.007857493668E-03  1.002346147163E-02  1.505498802211E-02
  2.006242789463E-02  2.518295887362E-02  3.031406367729E-02  3.541535971227E-02
  4.063920596422E-02  4.580414999906E-02  5.101154545345E-02  5.613531612369E-02
  6.140530367830E-02  6.676942151818E-02  7.216911222480E-02  7.754023833737E-02
  8.281422071629E-02  8.791940224324E-02  9.333929878166E-02  9.850229752908E-02
  1.039508839809E-01  1.090465757687E-01  1.143920593217E-01  1.199995794789E-01
  1.251311941587E-01  1.304822551844E-01  1.360621468730E-01  1.418806548486E-01
  1.470655896659E-01  1.524400045015E-01  1.580108237774E-01  1.637852249641E-01
  1.697706478280E-01  1.749252525021E-01  1.802363621415E-01  1.857087285760E-01
  1.913472479113E-01  1.971569649093E-01  2.031430775021E-01  2.093109414421E-01
  2.143797963160E-01  2.195714029655E-01  2.248887340540E-01  2.303348342332E-01
  2.359128218868E-01  2.416258909160E-01  2.474773125684E-01  2.534704373106E-01
  2.596086967475E-01  2.658956055863E-01  2.723347636496E-01  2.789298579363E-01
  2.839807800527E-01  2.891231653577E-01  2.943586700866E-01  2.996889804660E-01
  3.051158132571E-01  3.106409163086E-01  3.162660691196E-01  3.219930834126E-01
  3.278238037176E-01  3.337601079652E-01  3.398039080925E-01  3.459571506578E-01
  3.522218174687E-01  3.585999262193E-01  3.650935311409E-01  3.717047236630E-01
  3.784356330873E-01  3.852884272734E-01  3.922653133367E-01  3.993685383599E-01
  4.066003901162E-01  4.139631978061E-01  4.214593328080E-01  4.265320173377E-01
  4.316657566983E-01  4.368612857460E-01  4.421193481812E-01  4.474406966559E-01
  4.528260928809E-01  4.582763077348E-01  4.637921213747E-01  4.693743233475E-01
  4.750237127033E-01  4.807410981094E-01  4.865272979663E-01  4.923831405246E-01
  4.983094640040E-01  5.043071167127E-01  5.103769571695E-01  5.165198542260E-01
  5.227366871914E-01  5.290283459585E-01  5.353957311304E-01  5.418397541503E-01
  5.483613374313E-01  5.549614144886E-01  5.616409300734E-01  5.684008403077E-01
  5.752421128217E-01  5.821657268916E-01  5.891726735805E-01  5.962639558797E-01
  6.034405888526E-01  6.107035997801E-01  6.180540283070E-01  6.254929265917E-01
  6.330213594562E-01  6.406404045386E-01  6.483511524476E-01  6.561547069185E-01
  6.640521849710E-01  6.720447170693E-01  6.801334472839E-01  6.883195334554E-01
  6.966041473601E-01  7.049884748777E-01  7.134737161614E-01  7.220610858091E-01
  7.307518130379E-01  7.395471418596E-01  7.484483312590E-01  7.574566553740E-01
  7.665734036781E-01  7.757998811648E-01  7.851374085345E-01  7.945873223836E-01
  8.041509753958E-01  8.138297365357E-01  8.236249912446E-01  8.335381416393E-01
  8.385393704891E-01  8.435706067120E-01  8.486320303523E-01  8.537238225344E-01
  8.588461654696E-01  8.639992424624E-01  8.691832379172E-01  8.743983373447E-01
  8.796447273688E-01  8.849225957330E-01  8.902321313074E-01  8.955735240952E-01
  9.009469652398E-01  9.063526470313E-01  9.117907629134E-01  9.172615074909E-01
  9.227650765359E-01  9.283016669951E-01  9.338714769971E-01  9.394747058590E-01
  9.451115540942E-01  9.507822234188E-01  9.564869167593E-01  9.622258382598E-01
  9.679991932894E-01  9.738071884491E-01  9.796500315798E-01  9.855279317693E-01
  9.914410993599E-01  9.973897459561E-01  1.003374084432E+00  1.009394328938E+00
  1.015450694912E+00  1.021543399081E+00  1.027672659476E+00  1.033838695433E+00
  1.040041727605E+00  1.046281977971E+00  1.052559669839E+00  1.058875027858E+00
  1.065228278025E+00  1.071619647693E+00  1.078049365579E+00  1.084517661773E+00
  1.091024767743E+00  1.097570916350E+00  1.104156341848E+00  1.110781279899E+00
  1.117445967579E+00  1.124150643384E+00  1.130895547244E+00  1.137680920528E+00
  1.144507006051E+00  1.151374048087E+00  1.158282292376E+00  1.165231986130E+00
  1.172223378047E+00  1.179256718315E+00  1.186332258625E+00  1.193450252177E+00
  1.200610953690E+00  1.207814619412E+00  1.215061507128E+00  1.222351876171E+00
  1.229685987428E+00  1.237064103353E+00  1.244486487973E+00  1.251953406901E+00
  1.259465127342E+00  1.267021918106E+00  1.274624049615E+00  1.282271793913E+00
  1.289965424676E+00  1.297705217224E+00  1.305491448527E+00  1.313324397219E+00
  1.321204343602E+00  1.329131569663E+00  1.337106359081E+00  1.345128997236E+00
  1.353199771219E+00  1.361318969847E+00  1.369486883666E+00  1.377703804968E+00
  1.385970027798E+00  1.394285847964E+00  1.402651563052E+00  1.411067472430E+00
  1.419533877265E+00  1.428051080529E+00  1.436619387012E+00  1.445239103334E+00
  1.453910537954E+00  1.462634001182E+00  1.471409805189E+00  1.480238264020E+00
  1.489119693604E+00  1.498054411766E+00  1.507042738236E+00  1.516084994666E+00
  1.525181504634E+00  1.534332593661E+00  1.543538589223E+00  1.552799820759E+00
  1.562116619683E+00  1.571489319401E+00  1.580918255318E+00  1.590403764850E+00
  1.599946187439E+00  1.609545864563E+00  1.619203139751E+00  1.628918358589E+00
  1.638691868741E+00  1.648524019953E+00  1.658415164073E+00  1.668365655057E+00
  1.678375848988E+00  1.688446104082E+00  1.698576780706E+00  1.708768241390E+00
  1.719020850839E+00  1.729334975944E+00  1.739710985799E+00  1.750149251714E+00
  1.760650147224E+00  1.771214048108E+00  1.781841332396E+00  1.792532380391E+00
  1.803287574673E+00  1.814107300121E+00  1.824991943922E+00  1.835941895586E+00
  1.846957546959E+00  1.858039292241E+00  1.869187527994E+00  1.880402653162E+00
  1.891685069081E+00  1.903035179496E+00  1.914453390573E+00  1.925940110916E+00
  1.937495751582E+00  1.949120726091E+00  1.960815450448E+00  1.972580343150E+00
  1.984415825209E+00  1.996322320160E+00  2.008300254081E+00  2.020350055606E+00
  2.032472155940E+00  2.044666988875E+00  2.056934990808E+00  2.069276600753E+00
  2.081692260358E+00  2.094182413920E+00  2.106747508403E+00  2.119387993454E+00
  2.132104321415E+00  2.144896947343E+00  2.157766329027E+00  2.170712927001E+00
  2.183737204563E+00  2.196839627791E+00  2.210020665557E+00  2.223280789551E+00
  2.236620474288E+00  2.250040197134E+00  2.263540438317E+00  2.277121680947E+00
  2.290784411032E+00  2.304529117498E+00  2.318356292203E+00  2.332266429957E+00
  2.346260028536E+00  2.360337588708E+00  2.374499614240E+00  2.388746611925E+00
  2.403079091597E+00  2.417497566146E+00  2.432002551543E+00  2.446594566853E+00
  2.461274134254E+00  2.476041779059E+00  2.490898029733E+00  2.505843417912E+00
  2.520878478419E+00  2.536003749290E+00  2.551219771786E+00  2.566527090416E+00
  2.581926252959E+00  2.597417810477E+00  2.613002317339E+00  2.628680331243E+00
  2.644452413231E+00  2.660319127710E+00  2.676281042477E+00  2.692338728731E+00
  2.708492761104E+00  2.724743717670E+00  2.741092179976E+00  2.757538733056E+00
  2.774083965455E+00  2.790728469247E+00  2.807472840063E+00  2.824317677103E+00
  2.841263583166E+00  2.858311164665E+00  2.875461031653E+00  2.892713797843E+00
  2.910070080630E+00  2.927530501114E+00  2.945095684120E+00  2.962766258225E+00
  2.980542855774E+00  2.998426112909E+00  3.016416669586E+00  3.034515169604E+00
  3.052722260622E+00  3.071038594185E+00  3.089464825750E+00  3.108001614705E+00
  3.126649624393E+00  3.145409522140E+00  3.164281979272E+00  3.183267671148E+00
  3.202367277175E+00  3.221581480838E+00  3.240910969723E+00  3.260356435541E+00
  3.279918574155E+00  3.299598085600E+00  3.319395674113E+00  3.339312048158E+00
  3.359347920447E+00  3.379504007969E+00  3.399781032017E+00  3.420179718209E+00
  3.440700796519E+00  3.461345001298E+00  3.482113071305E+00  3.503005749733E+00
  3.524023784232E+00  3.545167926937E+00  3.566438934499E+00  3.587837568106E+00
  3.609364593514E+00  3.631020781075E+00  3.652806905762E+00  3.674723747196E+00
  3.696772089680E+00  3.718952722218E+00  3.741266438551E+00  3.763714037182E+00
  3.786296321405E+00  3.809014099334E+00  3.831868183930E+00  3.854859393033E+00
  3.877988549392E+00  3.901256480688E+00  3.924664019572E+00  3.948212003690E+00
  3.971901275712E+00  3.995732683366E+00  4.019707079466E+00  4.043825321943E+00
  4.068088273875E+00  4.092496803518E+00  4.117051784339E+00  4.141754095045E+00
  4.166604619615E+00  4.191604247333E+00  4.216753872817E+00  4.242054396054E+00
  4.267506722430E+00  4.293111762765E+00  4.318870433341E+00  4.344783655941E+00
  4.370852357877E+00  4.397077472024E+00  4.423459936856E+00  4.450000696478E+00
  4.476700700656E+00  4.503560904860E+00  4.530582270290E+00  4.557765763911E+00
  4.585112358495E+00  4.612623032646E+00  4.640298770842E+00  4.668140563467E+00
  4.696149406847E+00  4.724326303289E+00  4.752672261108E+00  4.781188294675E+00
  4.809875424443E+00  4.838734676990E+00  4.867767085052E+00  4.896973687562E+00
  4.926355529687E+00  4.955913662865E+00  4.985649144843E+00  5.015563039712E+00
  5.045656417950E+00  5.075930356458E+00  5.106385938596E+00  5.137024254228E+00
  5.167846399753E+00  5.198853478152E+00  5.230046599021E+00  5.261426878615E+00
  5.292995439887E+00  5.324753412526E+00  5.356701933001E+00  5.388842144599E+00
  5.421175197467E+00  5.453702248651E+00  5.486424462143E+00  5.519343008916E+00
  5.552459066970E+00  5.585773821371E+00  5.619288464300E+00  5.653004195086E+00
  5.686922220256E+00  5.721043753578E+00  5.755370016099E+00  5.789902236196E+00
  5.824641649613E+00  5.859589499510E+00  5.894747036508E+00  5.930115518727E+00
  5.965696211839E+00  6.001490389110E+00  6.037499331445E+00  6.073724327433E+00
  6.110166673398E+00  6.146827673438E+00  6.183708639479E+00  6.220810891316E+00
  6.258135756664E+00  6.295684571204E+00  6.333458678631E+00  6.371459430703E+00
  6.409688187287E+00  6.448146316411E+00  6.486835194309E+00  6.525756205475E+00
  6.564910742708E+00  6.604300207164E+00  6.643926008407E+00  6.683789564457E+00
  6.723892301844E+00  6.764235655655E+00  6.804821069589E+00  6.845649996007E+00
  6.886723895983E+00  6.928044239359E+00  6.969612504795E+00  7.011430179824E+00
  7.053498760903E+00  7.095819753468E+00  7.138394671989E+00  7.181225040021E+00
  7.224312390261E+00  7.267658264602E+00  7.311264214190E+00  7.355131799475E+00
  7.399262590272E+00  7.443658165814E+00  7.488320114809E+00  7.533250035497E+00
  7.578449535710E+00  7.623920232925E+00  7.669663754322E+00  7.715681736848E+00
  7.761975827269E+00  7.808547682233E+00  7.855398968326E+00  7.902531362136E+00
  7.949946550309E+00  7.997646229611E+00  8.045632106988E+00  8.093905899630E+00
  8.142469335028E+00  8.191324151038E+00  8.240472095945E+00  8.289914928520E+00
  8.339654418091E+00  8.389692344600E+00  8.440030498668E+00  8.490670681660E+00
  8.541614705749E+00  8.592864393984E+00  8.644421580348E+00  8.696288109830E+00
  8.748465838489E+00  8.800956633520E+00  8.853762373321E+00  8.906884947561E+00
  8.960326257246E+00  9.014088214790E+00  9.068172744079E+00  9.122581780543E+00
  9.177317271226E+00  9.232381174854E+00  9.287775461903E+00  9.343502114674E+00
  9.399563127362E+00  9.455960506126E+00  9.512696269163E+00  9.569772446778E+00
  9.627191081459E+00  9.684954227948E+00  9.743063953315E+00  9.801522337035E+00
  9.860331471057E+00  9.919493459884E+00  9.979010420643E+00  1.003888448317E+01
  1.009911779007E+01  1.015971249681E+01  1.022067077179E+01  1.028199479642E+01
  1.034368676520E+01  1.040574888579E+01  1.046818337910E+01  1.053099247938E+01
  1.059417843425E+01  1.065774350486E+01  1.072168996589E+01  1.078602010568E+01
  1.085073622632E+01  1.091584064368E+01  1.098133568754E+01  1.104722370166E+01
  1.111350704387E+01  1.118018808614E+01  1.124726921465E+01  1.131475282994E+01
  1.138264134692E+01  1.145093719500E+01  1.151964281817E+01  1.158876067508E+01
  1.165829323913E+01  1.172824299857E+01  1.179861245656E+01  1.186940413130E+01
  1.194062055608E+01  1.201226427942E+01  1.208433786510E+01  1.215684389229E+01
  1.222978495564E+01  1.230316366538E+01  1.237698264737E+01  1.245124454325E+01
  1.252595201051E+01  1.260110772257E+01  1.267671436891E+01  1.275277465512E+01
  1.282929130305E+01  1.290626705087E+01  1.298370465318E+01  1.306160688110E+01
  1.313997652238E+01  1.321881638152E+01  1.329812927981E+01  1.337791805549E+01
  1.345818556382E+01  1.353893467720E+01  1.362016828526E+01  1.370188929498E+01
  1.378410063075E+01  1.386680523453E+01  1.395000606594E+01  1.403370610233E+01
  1.411790833895E+01  1.420261578898E+01  1.428783148371E+01  1.437355847262E+01
  1.445979982345E+01  1.454655862239E+01  1.463383797413E+01  1.472164100197E+01
  1.480997084798E+01  1.489883067307E+01  1.498822365711E+01  1.507815299905E+01
  1.516862191705E+01  1.525963364855E+01  1.535119145044E+01  1.544329859914E+01
  1.553595839074E+01  1.562917414108E+01  1.572294918593E+01  1.581728688105E+01
  1.591219060233E+01  1.600766374595E+01  1.610370972842E+01  1.620033198679E+01
  1.629753397871E+01  1.639531918259E+01  1.649369109768E+01  1.659265324427E+01
  1.669220916373E+01  1.679236241871E+01  1.689311659323E+01  1.699447529279E+01
  1.709644214454E+01  1.719902079741E+01  1.730221492219E+01  1.740602821173E+01
  1.751046438100E+01  1.761552716728E+01  1.772122033029E+01  1.782754765227E+01
  1.793451293818E+01  1.804212001581E+01  1.815037273591E+01  1.825927497232E+01
  1.836883062216E+01  1.847904360589E+01  1.858991786752E+01  1.870145737473E+01
  1.881366611898E+01  1.892654811569E+01  1.904010740439E+01  1.915434804881E+01
  1.926927413711E+01  1.938488978193E+01  1.950119912062E+01  1.961820631534E+01
  1.973591555324E+01  1.985433104656E+01  1.997345703283E+01  2.009329777503E+01
  2.021385756168E+01  2.033514070705E+01  2.045715155129E+01  2.057989446060E+01
  2.070337382737E+01  2.082759407033E+01  2.095255963475E+01  2.107827499256E+01
  2.120474464252E+01  2.133197311037E+01  2.145996494903E+01  2.158872473873E+01
  2.171825708716E+01  2.184856662968E+01  2.197965802946E+01  2.211153597764E+01
  2.224420519350E+01  2.237767042466E+01  2.251193644721E+01  2.264700806590E+01
  2.278289011429E+01  2.291958745498E+01  2.305710497971E+01  2.319544760958E+01
  2.333462029524E+01  2.347462801701E+01  2.361547578512E+01  2.375716863983E+01
  2.389971165167E+01  2.404310992158E+01  2.418736858110E+01  2.433249279259E+01
  2.447848774935E+01  2.462535867584E+01  2.477311082790E+01  2.492174949287E+01
  2.507127998982E+01  2.522170766976E+01  2.537303791578E+01  2.552527614327E+01
  2.567842780013E+01  2.583249836694E+01  2.598749335714E+01  2.614341831728E+01
  2.630027882718E+01  2.645808050015E+01  2.661682898315E+01  2.677652995705E+01
  2.693718913679E+01  2.709881227161E+01  2.726140514524E+01  2.742497357611E+01
  2.758952341757E+01  2.775506055807E+01  2.792159092142E+01  2.808912046695E+01
  2.825765518975E+01  2.842720112089E+01  2.859776432761E+01  2.876935091358E+01
  2.894196701906E+01  2.911561882118E+01  2.929031253410E+01  2.946605440931E+01
  2.964285073576E+01  2.982070784018E+01  2.999963208722E+01  3.017962987974E+01
  3.036070765902E+01  3.054287190498E+01  3.072612913641E+01  3.091048591122E+01
  3.109594882669E+01  3.128252451965E+01  3.147021966677E+01  3.165904098477E+01
  3.184899523068E+01  3.204008920206E+01  3.223232973727E+01  3.242572371570E+01
  3.262027805799E+01  3.281599972634E+01  3.301289572470E+01  3.321097309905E+01
  3.341023893764E+01  3.361070037127E+01  3.381236457349E+01  3.401523876094E+01
  3.421933019350E+01  3.442464617466E+01  3.463119405171E+01  3.483898121602E+01
  3.504801510332E+01  3.525830319394E+01  3.546985301310E+01  3.568267213118E+01
  3.589676816397E+01  3.611214877295E+01  3.632882166559E+01  3.654679459558E+01
  3.676607536315E+01  3.698667181533E+01  3.720859184622E+01  3.743184339730E+01
  3.765643445769E+01  3.788237306443E+01  3.810966730282E+01  3.833832530664E+01
  3.856835525848E+01  3.879976539003E+01  3.903256398237E+01  3.926675936626E+01
  3.950235992246E+01  3.973937408199E+01  3.997781032648E+01  4.021767718844E+01
  4.045898325157E+01  4.070173715108E+01  4.094594757399E+01  4.119162325943E+01
  4.143877299899E+01  4.168740563699E+01  4.193753007081E+01  4.218915525123E+01
  4.244229018274E+01  4.269694392384E+01  4.295312558738E+01  4.321084434090E+01
  4.347010940695E+01  4.373093006339E+01  4.399331564377E+01  4.425727553763E+01
  4.452281919086E+01
</grid-data>
</grid>
<valence-charge total-charge="8" is-unscreening-charge="yes"
 rescaled-to-z-pseudo="no">
<radfunc>
<data npts="797">
  1.043388350308E-02  1.044311998211E-02  1.047090191815E-02  1.051745227212E-02
  1.058243220096E-02  1.066823411959E-02  1.077399113146E-02  1.089893893947E-02
  1.104757354336E-02  1.121536365417E-02  1.140579330629E-02  1.161431721469E-02
  1.185104314336E-02  1.211558813023E-02  1.240639480011E-02  1.272056473146E-02
  1.305374372528E-02  1.340008094714E-02  1.379400774916E-02  1.419499052575E-02
  1.464605405855E-02  1.509447615854E-02  1.559319086360E-02  1.614832683501E-02
  1.668580369011E-02  1.727705392076E-02  1.792797400823E-02  1.864518168113E-02
  1.931830292592E-02  2.005079457604E-02  2.084843698378E-02  2.171763467378E-02
  2.266548901999E-02  2.352111183458E-02  2.444183040813E-02  2.543312049765E-02
  2.650096133672E-02  2.765188408794E-02  2.889302484218E-02  3.023218253237E-02
  3.137978354554E-02  3.260028386546E-02  3.389876105120E-02  3.528066854950E-02
  3.675186352659E-02  3.831863656602E-02  3.998774332061E-02  4.176643820471E-02
  4.366251021052E-02  4.568432092801E-02  4.784084484324E-02  5.014171198253E-02
  5.196827442366E-02  5.388645766693E-02  5.590114224900E-02  5.801746937726E-02
  6.024085361578E-02  6.257699602046E-02  6.503189772174E-02  6.761187395093E-02
  7.032356850405E-02  7.317396863477E-02  7.617042036524E-02  7.932064420073E-02
  8.263275123113E-02  8.611525959892E-02  8.977711130958E-02  9.362768935693E-02
  9.767683513127E-02  1.019348660741E-01  1.064125935379E-01  1.111213408041E-01
  1.160729612063E-01  1.212798562986E-01  1.267549940014E-01  1.305607773951E-01
  1.344959540798E-01  1.385648088378E-01  1.427717500376E-01  1.471213118855E-01
  1.516181566318E-01  1.562670767198E-01  1.610729968706E-01  1.660409760910E-01
  1.711762095938E-01  1.764840306163E-01  1.819699121228E-01  1.876394683739E-01
  1.934984563450E-01  1.995527769717E-01  2.058084762011E-01  2.122717458207E-01
  2.189489240376E-01  2.258464957750E-01  2.329710926486E-01  2.403294925843E-01
  2.479286190292E-01  2.557755397078E-01  2.638774648643E-01  2.722417449306E-01
  2.808758675481E-01  2.897874538670E-01  2.989842540373E-01  3.084741417962E-01
  3.182651080492E-01  3.283652533283E-01  3.387827790043E-01  3.495259771146E-01
  3.606032186588E-01  3.720229401995E-01  3.837936285946E-01  3.959238036722E-01
  4.084219986479E-01  4.212967380678E-01  4.345565130510E-01  4.482097535892E-01
  4.622647976503E-01  4.767298568240E-01  4.916129782348E-01  5.069220024423E-01
  5.226645170457E-01  5.388478057036E-01  5.554787922867E-01  5.725639798850E-01
  5.901093844030E-01  6.081204624946E-01  6.266020336137E-01  6.455581959857E-01
  6.649922363501E-01  6.849065333662E-01  7.053024546395E-01  7.261802473911E-01
  7.367995881537E-01  7.475389228739E-01  7.583979148806E-01  7.693761347314E-01
  7.804730561024E-01  7.916880515978E-01  8.030203884838E-01  8.144692243530E-01
  8.260336027222E-01  8.377124485734E-01  8.495045638409E-01  8.614086228551E-01
  8.734231677491E-01  8.855466038368E-01  8.977771949724E-01  9.101130589015E-01
  9.225521626133E-01  9.350923177055E-01  9.477311757747E-01  9.604662238439E-01
  9.732947798408E-01  9.862139881404E-01  9.992208151871E-01  1.012312045211E+00
  1.025484276053E+00  1.038733915120E+00  1.052057175478E+00  1.065450072107E+00
  1.078908418342E+00  1.092427822493E+00  1.106003684701E+00  1.119631194010E+00
  1.133305325704E+00  1.147020838907E+00  1.160772274481E+00  1.174553953231E+00
  1.188359974438E+00  1.202184214751E+00  1.216020327428E+00  1.229861741987E+00
  1.243701664237E+00  1.257533076751E+00  1.271348739767E+00  1.285141192546E+00
  1.298902755199E+00  1.312625531005E+00  1.326301409221E+00  1.339922068407E+00
  1.353478980267E+00  1.366963414029E+00  1.380366441365E+00  1.393678941848E+00
  1.406891608978E+00  1.419994956752E+00  1.432979326801E+00  1.445834896084E+00
  1.458551685143E+00  1.471119566916E+00  1.483528276098E+00  1.495767419052E+00
  1.507826484265E+00  1.519694853320E+00  1.531361812400E+00  1.542816564294E+00
  1.554048240892E+00  1.565045916168E+00  1.575798619615E+00  1.586295350130E+00
  1.596525090324E+00  1.606476821240E+00  1.616139537453E+00  1.625502262549E+00
  1.634554064936E+00  1.643284073991E+00  1.651681496510E+00  1.659735633436E+00
  1.667435896862E+00  1.674771827269E+00  1.681733110994E+00  1.688309597906E+00
  1.694491319267E+00  1.700268505771E+00  1.705631605742E+00  1.710571303469E+00
  1.715078537681E+00  1.719144520135E+00  1.722760754314E+00  1.725919054225E+00
  1.728611563284E+00  1.730830773277E+00  1.732569543408E+00  1.733821119389E+00
  1.734579152603E+00  1.734837719307E+00  1.734591339860E+00  1.733834997987E+00
  1.732564160041E+00  1.730774794252E+00  1.728463389950E+00  1.725626976719E+00
  1.722263143463E+00  1.718370057347E+00  1.713946482561E+00  1.708991798857E+00
  1.703506019808E+00  1.697489810713E+00  1.690944506069E+00  1.683872126532E+00
  1.676275395256E+00  1.668157753516E+00  1.659523375479E+00  1.650377182015E+00
  1.640724853383E+00  1.630572840663E+00  1.619928375759E+00  1.608799479816E+00
  1.597194969870E+00  1.585124463549E+00  1.572598381648E+00  1.559627948386E+00
  1.546225189192E+00  1.532402926022E+00  1.518174770083E+00  1.503555110989E+00
  1.488559102070E+00  1.473202642852E+00  1.457502358120E+00  1.441475573573E+00
  1.425140287989E+00  1.408515093008E+00  1.391618884901E+00  1.374470460906E+00
  1.357088419326E+00  1.339491186454E+00  1.321696949538E+00  1.303723627290E+00
  1.285588836545E+00  1.267309861466E+00  1.248903624881E+00  1.230386661863E+00
  1.211775095657E+00  1.193084616207E+00  1.174330461438E+00  1.155527401146E+00
  1.136689723651E+00  1.117831225223E+00  1.098965202326E+00  1.080104458002E+00
  1.061261357648E+00  1.042447910437E+00  1.023675779474E+00  1.004956263594E+00
  9.863003017434E-01  9.677184697263E-01  9.492209788153E-01  9.308176748022E-01
  9.125180375927E-01  8.943311813285E-01  8.762658550183E-01  8.583304436610E-01
  8.405329698416E-01  8.228810957817E-01  8.053821258247E-01  7.880430093385E-01
  7.708703440149E-01  7.538703795472E-01  7.370490216664E-01  7.204118365175E-01
  7.039640553557E-01  6.877105795437E-01  6.716559858331E-01  6.558045319043E-01
  6.401601621574E-01  6.247265137257E-01  6.095069226982E-01  5.945044305325E-01
  5.797217906406E-01  5.651614751296E-01  5.508256816826E-01  5.367163405601E-01
  5.228351217094E-01  5.091834419635E-01  4.957624723161E-01  4.825731452573E-01
  4.696161621567E-01  4.568920006781E-01  4.444009222156E-01  4.321429793360E-01
  4.201180232160E-01  4.083257110636E-01  3.967655135111E-01  3.854367219701E-01
  3.743384559376E-01  3.634696702456E-01  3.528291622421E-01  3.424155788983E-01
  3.322274238319E-01  3.222630642398E-01  3.125207377334E-01  3.029985590703E-01
  2.936945267756E-01  2.846065296487E-01  2.757323531492E-01  2.670696856586E-01
  2.586161246130E-01  2.503691825044E-01  2.423262927451E-01  2.344848153955E-01
  2.268420427495E-01  2.193952047792E-01  2.121414744340E-01  2.050779727950E-01
  1.982017740821E-01  1.915099105151E-01  1.849993770266E-01  1.786671358273E-01
  1.725101208244E-01  1.665252418930E-01  1.607093890009E-01  1.550594361882E-01
  1.495722454031E-01  1.442446701934E-01  1.390735592577E-01  1.340557598553E-01
  1.291881210783E-01  1.244674969868E-01  1.198907496089E-01  1.154547518087E-01
  1.111563900226E-01  1.069925668676E-01  1.029602036231E-01  9.905624258761E-02
  9.527764931494E-02  9.162141472943E-02  8.808455712456E-02  8.466412404646E-02
  8.135719406476E-02  7.816087843338E-02  7.507232264346E-02  7.208870787100E-02
  6.920725232155E-02  6.642521247447E-02  6.373988422908E-02  6.114860395531E-02
  5.864874945117E-02  5.623774080967E-02  5.391304119744E-02  5.167215754786E-02
  4.951264117086E-02  4.743208828216E-02  4.542814045435E-02  4.349848499238E-02
  4.164085523596E-02  3.985303079148E-02  3.813283769599E-02  3.647814851579E-02
  3.488688238217E-02  3.335700496696E-02  3.188652840042E-02  3.047351113399E-02
  2.911605775059E-02  2.781231872485E-02  2.656049013603E-02  2.535881333598E-02
  2.420557457478E-02  2.309910458639E-02  2.203777813701E-02  2.102001353836E-02
  2.004427212836E-02  1.910905772161E-02  1.821291603192E-02  1.735443406917E-02
  1.653223951275E-02  1.574500006374E-02  1.499142277790E-02  1.427025338153E-02
  1.358027557229E-02  1.292031030675E-02  1.228921507662E-02  1.168588317547E-02
  1.110924295757E-02  1.055825709066E-02  1.003192180400E-02  9.529266133474E-03
  9.049351164956E-03  8.591269277428E-03  8.154143387106E-03  7.737126193770E-03
  7.339399430470E-03  6.960173117654E-03  6.598684822734E-03  6.254198926009E-03
  5.926005893812E-03  5.613421559667E-03  5.315786414197E-03  5.032464904427E-03
  4.762844743102E-03  4.506336228545E-03  4.262371575557E-03  4.030404257759E-03
  3.809908361776E-03  3.600377953568E-03  3.401326457183E-03  3.212286046164E-03
  3.032807047784E-03  2.862457360252E-03  2.700821882991E-03  2.547501960049E-03
  2.402114836678E-03  2.264293129071E-03  2.133684307229E-03  2.009950190901E-03
  1.892766458508E-03  1.781822168950E-03  1.676819296166E-03  1.577472276306E-03
  1.483507567348E-03  1.394663220992E-03  1.310688466645E-03  1.231343307283E-03
  1.156398127013E-03  1.085633310089E-03  1.018838871186E-03  9.558140966937E-04
  8.963671968103E-04  8.403149682002E-04  7.874824669873E-04  7.377026918517E-04
  6.908162769973E-04  6.466711947602E-04  6.051224676301E-04  5.660318894565E-04
  5.292677556177E-04  4.947046019302E-04  4.622229520821E-04  4.317090733760E-04
  4.030547405718E-04  3.761570076226E-04  3.509179871018E-04  3.272446371226E-04
  3.050485555563E-04  2.842457813584E-04  2.647566028165E-04  2.465053725378E-04
  2.294203289961E-04  2.134334244652E-04  1.984801591659E-04  1.844994214588E-04
  1.714333339192E-04  1.592271051314E-04  1.478288870453E-04  1.371896377398E-04
  1.272629894405E-04  1.180051216433E-04  1.093746391955E-04  1.013324551929E-04
  9.384167854938E-05  8.686750610148E-05  8.037711911129E-05  7.433958403367E-05
  6.872575741651E-05  6.350819480480E-05  5.866106352167E-05  5.416005920197E-05
  4.998232595614E-05  4.610638004434E-05  4.251203694336E-05  3.918034169062E-05
  3.609350239238E-05  3.323482678511E-05  3.058866174157E-05  2.814033561508E-05
  2.587610331823E-05  2.378309403407E-05  2.184926146058E-05  2.006333649113E-05
  1.841478223636E-05  1.689375129495E-05  1.549104518319E-05  1.419807583565E-05
  1.300682909145E-05  1.190983008323E-05  1.090011044787E-05  9.971177280692E-06
  9.116983757070E-06  8.331901347553E-06  7.610693555137E-06  6.948491105413E-06
  6.340768522654E-06  5.783322027131E-06  5.272248691138E-06  4.803926793411E-06
  4.374997313759E-06  3.982346511858E-06  3.623089536239E-06  3.294555011543E-06
  2.994270554143E-06  2.719949168199E-06  2.469476476131E-06  2.240898739390E-06
  2.032411627263E-06  1.842349693227E-06  1.669176520117E-06  1.511475497113E-06
  1.367941193153E-06  1.237371293051E-06  1.118659064097E-06  1.010786322500E-06
  9.128168704219E-07  8.238903758394E-07  7.432166687854E-07  6.700704288695E-07
  6.037862402405E-07  5.437539913775E-07  4.894145982789E-07  4.402560307453E-07
  3.958096225439E-07  3.556466472827E-07  3.193751428190E-07  2.866369679883E-07
  2.571050763477E-07  2.304809925064E-07  2.064924774463E-07  1.848913700332E-07
  1.654515926746E-07  1.479673098026E-07  1.322512285459E-07  1.181330316066E-07
  1.054579329750E-07  9.408534770506E-08  8.388766752584E-08  7.474913459436E-08
  6.656480619023E-08  5.923960362557E-08  5.268743908731E-08  4.683041454887E-08
  4.159808728374E-08  3.692679688634E-08  3.275904905601E-08  2.904295173013E-08
  2.573169946213E-08  2.278310223135E-08  2.015915514444E-08  1.782564574418E-08
  1.575179588104E-08  1.390993532702E-08  1.227520452121E-08  1.082528403206E-08