Xe    ONCVPSP-4.0.1  r_core=   2.00830   1.80329   2.00830   2.00830
54.0000      8.0000      220131    zatom,zion,pspd
8      11   3     4   600     0    pspcod,pspxc,lmax,lloc,mmax,r2well
5.99000000  8.00000000  0.00000000    rchrg fchrg qchrg
2     2     2     2     0    nproj
1     1           extension_switch
0                         7.9137713055128E+00  1.2345150465771E+00
1  0.0000000000000E+00 -1.1920797682308E-10  2.2274847244486E-10
2  1.0000000000000E-02  3.2238820367357E-02 -1.6542275552024E-02
3  2.0000000000000E-02  6.4398691220861E-02 -3.2963800267226E-02
4  3.0000000000000E-02  9.6401227934196E-02 -4.9144797813434E-02
5  4.0000000000000E-02  1.2816917139815E-01 -6.4967433194902E-02
6  5.0000000000000E-02  1.5962694016456E-01 -8.0316764294988E-02
7  6.0000000000000E-02  1.9070116993740E-01 -9.5081670626458E-02
8  7.0000000000000E-02  2.2132123633384E-01 -1.0915575195450E-01
9  8.0000000000000E-02  2.5141975695732E-01 -1.2243818968029E-01
10  9.0000000000000E-02  2.8093306897219E-01 -1.3483456414843E-01
11  1.0000000000000E-01  3.0980167854425E-01 -1.4625762136791E-01
12  1.1000000000000E-01  3.3797067871219E-01 -1.5662798301100E-01
13  1.2000000000000E-01  3.6539013248095E-01 -1.6587479397576E-01
14  1.3000000000000E-01  3.9201541817655E-01 -1.7393630226124E-01
15  1.4000000000000E-01  4.1780753437242E-01 -1.8076036640846E-01
16  1.5000000000000E-01  4.4273336198752E-01 -1.8630488630021E-01
17  1.6000000000000E-01  4.6676588146412E-01 -1.9053815368494E-01
18  1.7000000000000E-01  4.8988434325687E-01 -1.9343911939101E-01
19  1.8000000000000E-01  5.1207439020143E-01 -1.9499757482285E-01
20  1.9000000000000E-01  5.3332813067919E-01 -1.9521424597490E-01
21  2.0000000000000E-01  5.5364416185128E-01 -1.9410079886016E-01
22  2.1000000000000E-01  5.7302754259802E-01 -1.9167975592006E-01
23  2.2000000000000E-01  5.9148971616718E-01 -1.8798432365934E-01
24  2.3000000000000E-01  6.0904838290185E-01 -1.8305813242677E-01
25  2.4000000000000E-01  6.2572732378630E-01 -1.7695488993583E-01
26  2.5000000000000E-01  6.4155617591033E-01 -1.6973795078449E-01
27  2.6000000000000E-01  6.5657016130962E-01 -1.6147980488353E-01
28  2.7000000000000E-01  6.7080977098686E-01 -1.5226148833615E-01
29  2.8000000000000E-01  6.8432040625477E-01 -1.4217192092048E-01
30  2.9000000000000E-01  6.9715197986427E-01 -1.3130717490910E-01
31  3.0000000000000E-01  7.0935847968764E-01 -1.1976968050948E-01
32  3.1000000000000E-01  7.2099749801430E-01 -1.0766737372347E-01
33  3.2000000000000E-01  7.3212972978444E-01 -9.5112792898167E-02
34  3.3000000000000E-01  7.4281844333100E-01 -8.2222130670783E-02
35  3.4000000000000E-01  7.5312892742151E-01 -6.9114248394261E-02
36  3.5000000000000E-01  7.6312791858632E-01 -5.5909660463425E-02
37  3.6000000000000E-01  7.7288301288774E-01 -4.2729496242741E-02
38  3.7000000000000E-01  7.8246206642338E-01 -2.9694447522362E-02
39  3.8000000000000E-01  7.9193258896644E-01 -1.6923709597831E-02
40  3.9000000000000E-01  8.0136113522410E-01 -4.5339241788656E-03
41  4.0000000000000E-01  8.1081269824202E-01  7.3618676174044E-03
42  4.1000000000000E-01  8.2035010949810E-01  1.8655253943783E-02
43  4.2000000000000E-01  8.3003345021102E-01  2.9243454397791E-02
44  4.3000000000000E-01  8.3991947833968E-01  3.9030287653168E-02
45  4.4000000000000E-01  8.5006107566724E-01  4.7927096700542E-02
46  4.5000000000000E-01  8.6050671925010E-01  5.5853624102169E-02
47  4.6000000000000E-01  8.7129998136645E-01  6.2738829976368E-02
48  4.7000000000000E-01  8.8247906192402E-01  6.8521645794218E-02
49  4.8000000000000E-01  8.9407635708126E-01  7.3151657492219E-02
50  4.9000000000000E-01  9.0611806760319E-01  7.6589711877119E-02
51  5.0000000000000E-01  9.1862385021317E-01  7.8808440820201E-02
52  5.1000000000000E-01  9.3160651491721E-01  7.9792698304233E-02
53  5.2000000000000E-01  9.4507177096879E-01  7.9539905993865E-02
54  5.3000000000000E-01  9.5901802381340E-01  7.8060303644610E-02
55  5.4000000000000E-01  9.7343622500315E-01  7.5377101343249E-02
56  5.5000000000000E-01  9.8830977670704E-01  7.1526531277948E-02
57  5.6000000000000E-01  1.0036144920631E+00  6.6557797465404E-02
58  5.7000000000000E-01  1.0193186122281E+00  6.0532922609478E-02
59  5.8000000000000E-01  1.0353828805792E+00  5.3526492025663E-02
60  5.9000000000000E-01  1.0517606741189E+00  4.5625295333339E-02
61  6.0000000000000E-01  1.0683981917216E+00  3.6927867386965E-02
62  6.1000000000000E-01  1.0852346984531E+00  2.7543930683067E-02
63  6.2000000000000E-01  1.1022028247855E+00  1.7593742236336E-02
64  6.3000000000000E-01  1.1192289191295E+00  7.2073486592335E-03
65  6.4000000000000E-01  1.1362334517097E+00 -3.4762460993031E-03
66  6.5000000000000E-01  1.1531314674297E+00 -1.4309995205855E-02
67  6.6000000000000E-01  1.1698330850012E+00 -2.5139799771244E-02
68  6.7000000000000E-01  1.1862440392628E+00 -3.5805569614989E-02
69  6.8000000000000E-01  1.2022662632799E+00 -4.6142346938800E-02
70  6.9000000000000E-01  1.2177985065055E+00 -5.5981485342679E-02
71  7.0000000000000E-01  1.2327369849978E+00 -6.5151876128088E-02
72  7.1000000000000E-01  1.2469760594272E+00 -7.3481213398059E-02
73  7.2000000000000E-01  1.2604089363769E+00 -8.0797289087526E-02
74  7.3000000000000E-01  1.2729283882371E+00 -8.6929308742596E-02
75  7.4000000000000E-01  1.2844274868249E+00 -9.1709218616711E-02
76  7.5000000000000E-01  1.2948003457274E+00 -9.4973034468465E-02
77  7.6000000000000E-01  1.3039428662620E+00 -9.6562162330935E-02
78  7.7000000000000E-01  1.3117534818834E+00 -9.6324701478192E-02
79  7.8000000000000E-01  1.3181338958402E+00 -9.4116719841733E-02
80  7.9000000000000E-01  1.3229898068863E+00 -8.9803492228379E-02
81  8.0000000000000E-01  1.3262316179033E+00 -8.3260691861852E-02
82  8.1000000000000E-01  1.3277751223678E+00 -7.4375526012053E-02
83  8.2000000000000E-01  1.3275421637176E+00 -6.3047806787967E-02
84  8.3000000000000E-01  1.3254612628246E+00 -4.9190948550426E-02
85  8.4000000000000E-01  1.3214682089734E+00 -3.2732883847401E-02
86  8.5000000000000E-01  1.3155066099662E+00 -1.3616890284782E-02
87  8.6000000000000E-01  1.3075283972334E+00  8.1976786840129E-03
88  8.7000000000000E-01  1.2974942821145E+00  3.2734765439012E-02
89  8.8000000000000E-01  1.2853741597927E+00  6.0001088054733E-02
90  8.9000000000000E-01  1.2711474577083E+00  8.9985733322939E-02
91  9.0000000000000E-01  1.2548034256462E+00  1.2265986714758E-01
92  9.1000000000000E-01  1.2363413650818E+00  1.5797656571364E-01
93  9.2000000000000E-01  1.2157707957813E+00  1.9587076999041E-01
94  9.3000000000000E-01  1.1931115580781E+00  2.3625936526261E-01
95  9.4000000000000E-01  1.1683938496870E+00  2.7904138649497E-01
96  9.5000000000000E-01  1.1416581963718E+00  3.2409834943567E-01
97  9.6000000000000E-01  1.1129553562357E+00  3.7129470645494E-01
98  9.7000000000000E-01  1.0823461578711E+00  4.2047842520737E-01
99  9.8000000000000E-01  1.0499012730636E+00  4.7148168730368E-01
100  9.9000000000000E-01  1.0157009252107E+00  5.2412170328878E-01
101  1.0000000000000E+00  9.7983453506477E-01  5.7820163935309E-01
102  1.0100000000000E+00  9.4240030585770E-01  6.3351165036117E-01
103  1.0200000000000E+00  9.0350475029732E-01  6.8983001297144E-01
104  1.0300000000000E+00  8.6326216233917E-01  7.4692435184886E-01
105  1.0400000000000E+00  8.2179403703666E-01  8.0455295124734E-01
106  1.0500000000000E+00  7.7922844214677E-01  8.6246614356244E-01
107  1.0600000000000E+00  7.3569934551872E-01  9.2040776583652E-01
108  1.0700000000000E+00  6.9134590261524E-01  9.7811667464103E-01
109  1.0800000000000E+00  6.4631170880888E-01  1.0353283092684E+00
110  1.0900000000000E+00  6.0074402135538E-01  1.0917762927456E+00
111  1.1000000000000E+00  5.5479295617174E-01  1.1471940598320E+00
112  1.1100000000000E+00  5.0861066473603E-01  1.2013165008959E+00
113  1.1200000000000E+00  4.6235049657701E-01  1.2538816103702E+00
114  1.1300000000000E+00  4.1616615293451E-01  1.3046321283793E+00
115  1.1400000000000E+00  3.7021083724347E-01  1.3533171641028E+00
116  1.1500000000000E+00  3.2463640812632E-01  1.3996937894962E+00
117  1.1600000000000E+00  2.7959254056888E-01  1.4435285921327E+00
118  1.1700000000000E+00  2.3522590090429E-01  1.4845991761501E+00
119  1.1800000000000E+00  1.9167934113799E-01  1.5226956005955E+00
120  1.1900000000000E+00  1.4909111801479E-01  1.5576217448461E+00
121  1.2000000000000E+00  1.0759414205745E-01  1.5891965912494E+00
122  1.2100000000000E+00  6.7315261597179E-02  1.6172554156627E+00
123  1.2200000000000E+00  2.8374586568640E-02  1.6416508771883E+00
124  1.2300000000000E+00 -9.1151434383398E-03  1.6622539990728E+00
125  1.2400000000000E+00 -4.5049142693877E-02  1.6789550334838E+00
126  1.2500000000000E+00 -7.9331110579230E-02  1.6916642036753E+00
127  1.2600000000000E+00 -1.1187370711584E-01  1.7003123179000E+00
128  1.2700000000000E+00 -1.4259896971540E-01  1.7048512503264E+00
129  1.2800000000000E+00 -1.7143866851497E-01  1.7052542851516E+00
130  1.2900000000000E+00 -1.9833459810192E-01  1.7015163210656E+00
131  1.3000000000000E+00 -2.2323880389283E-01  1.6936539342191E+00
132  1.3100000000000E+00 -2.4611374189982E-01  1.6817052988566E+00
133  1.3200000000000E+00 -2.6693237109595E-01  1.6657299657911E+00
134  1.3300000000000E+00 -2.8567817807880E-01  1.6458084999298E+00
135  1.3400000000000E+00 -3.0234513421643E-01  1.6220419790703E+00
136  1.3500000000000E+00 -3.1693758594548E-01  1.5945513571951E+00
137  1.3600000000000E+00 -3.2947007937008E-01  1.5634766964790E+00
138  1.3700000000000E+00 -3.3996712078204E-01  1.5289762731773E+00
139  1.3800000000000E+00 -3.4846287517904E-01  1.4912255634894E+00
140  1.3900000000000E+00 -3.5500080529966E-01  1.4504161163675E+00
141  1.4000000000000E+00 -3.5963325411487E-01  1.4067543210728E+00
142  1.4100000000000E+00 -3.6242097411628E-01  1.3604600780559E+00
143  1.4200000000000E+00 -3.6343260711260E-01  1.3117653824509E+00
144  1.4300000000000E+00 -3.6274411859129E-01  1.2609128301189E+00
145  1.4400000000000E+00 -3.6043819101449E-01  1.2081540567468E+00
146  1.4500000000000E+00 -3.5660358069725E-01  1.1537481210071E+00
147  1.4600000000000E+00 -3.5133444316025E-01  1.0979598431966E+00
148  1.4700000000000E+00 -3.4472963205312E-01  1.0410581111034E+00
149  1.4800000000000E+00 -3.3689197691151E-01  9.8331416509306E-01
150  1.4900000000000E+00 -3.2792754513582E-01  9.2499987456150E-01
151  1.5000000000000E+00 -3.1794489366365E-01  8.6638601796113E-01
152  1.5100000000000E+00 -3.0705431584974E-01  8.0774057858245E-01
153  1.5200000000000E+00 -2.9536708906651E-01  7.4932706815064E-01
154  1.5300000000000E+00 -2.8299472849536E-01  6.9140289008750E-01
155  1.5400000000000E+00 -2.7004825249382E-01  6.3421775398877E-01
156  1.5500000000000E+00 -2.5663746479790E-01  5.7801215248055E-01
157  1.5600000000000E+00 -2.4287025865229E-01  5.2301591114686E-01
158  1.5700000000000E+00 -2.2885194775660E-01  4.6944682166876E-01
159  1.5800000000000E+00 -2.1468462867325E-01  4.1750936768660E-01
160  1.5900000000000E+00 -2.0046657906596E-01  3.6739355219644E-01
161  1.6000000000000E+00 -1.8629169582743E-01  3.1927383452435E-01
162  1.6100000000000E+00 -1.7224897681489E-01  2.7330818409417E-01
163  1.6200000000000E+00 -1.5842204954381E-01  2.2963725732104E-01
164  1.6300000000000E+00 -1.4488874979888E-01  1.8838370303497E-01
165  1.6400000000000E+00 -1.3172075270617E-01  1.4965160086413E-01
166  1.6500000000000E+00 -1.1898325837956E-01  1.1352603600648E-01
167  1.6600000000000E+00 -1.0673473380811E-01  8.0072812787405E-02
168  1.6700000000000E+00 -9.5026712193500E-02  4.9338308354706E-02
169  1.6800000000000E+00 -8.3903650482480E-02  2.1349466805789E-02
170  1.6900000000000E+00 -7.3402845371034E-02 -3.8860670152948E-03
171  1.7000000000000E+00 -6.3554407589307E-02 -2.6379675863572E-02
172  1.7100000000000E+00 -5.4381293812553E-02 -4.6161363429349E-02
173  1.7200000000000E+00 -4.5899395087333E-02 -6.3279216524365E-02
174  1.7300000000000E+00 -3.8117680217420E-02 -7.7798740958202E-02
175  1.7400000000000E+00 -3.1038392124342E-02 -8.9802076886899E-02
176  1.7500000000000E+00 -2.4657294785815E-02 -9.9387100312068E-02
177  1.7600000000000E+00 -1.8963967965708E-02 -1.0666641825157E-01
178  1.7700000000000E+00 -1.3942146583870E-02 -1.1176626588655E-01
179  1.7800000000000E+00 -9.5701012067996E-03 -1.1482531483395E-01
180  1.7900000000000E+00 -5.8210558372126E-03 -1.1599340229203E-01
181  1.8000000000000E+00 -2.6636412404572E-03 -1.1543018186178E-01
182  1.8100000000000E+00 -6.2368613257170E-05 -1.1330375162007E-01
183  1.8200000000000E+00  2.0217283256489E-03 -1.0978863789306E-01
184  1.8300000000000E+00  3.6303505399866E-03 -1.0506344070334E-01
185  1.8400000000000E+00  4.8072959573901E-03 -9.9308985943989E-02
186  1.8500000000000E+00  5.5978973941449E-03 -9.2706825047011E-02
187  1.8600000000000E+00  6.0484452699849E-03 -8.5437684986892E-02
188  1.8700000000000E+00  6.2056170116217E-03 -7.7679949517000E-02
189  1.8800000000000E+00  6.1159063730270E-03 -6.9608154994778E-02
190  1.8900000000000E+00  5.8250680069156E-03 -6.1391532215078E-02
191  1.9000000000000E+00  5.3776641937239E-03 -5.3192762617215E-02
192  1.9100000000000E+00  4.8156418599931E-03 -4.5164902761977E-02
193  1.9200000000000E+00  4.1717294265133E-03 -3.7438438866592E-02
194  1.9300000000000E+00  3.4810263270385E-03 -3.0143115650919E-02
195  1.9400000000000E+00  2.7827276258382E-03 -2.3410944740244E-02
196  1.9500000000000E+00  2.1111268167942E-03 -1.7358763046489E-02
197  1.9600000000000E+00  1.4964647836572E-03 -1.2089632876058E-02
198  1.9700000000000E+00  9.6441542063343E-04 -7.6916661977498E-03
199  1.9800000000000E+00  5.3601500750071E-04 -4.2390132603383E-03
200  1.9900000000000E+00  2.2506950031399E-04 -1.7725004535684E-03
201  2.0000000000000E+00  4.9749041722497E-05 -3.9207178378193E-04
202  2.0100000000000E+00 -3.1519721811578E-06  2.4292476924618E-05
203  2.0200000000000E+00 -2.8878836414178E-07  2.2593529570163E-06
204  2.03  0. -0.
205  2.04 -0.  0.
206  2.05  0. -0.
207  2.06  0.  0.
208  2.07  0.  0.
209  2.08  0.  0.
210  2.09  0.  0.
211  2.10  0.  0.
212  2.11  0.  0.
213  2.12  0.  0.
214  2.13  0.  0.
215  2.14  0.  0.
216  2.15  0.  0.
217  2.16  0.  0.
218  2.17  0.  0.
219  2.18  0.  0.
220  2.19  0.  0.
221  2.20  0.  0.
222  2.21  0.  0.
223  2.22  0.  0.
224  2.23  0.  0.
225  2.24  0.  0.
226  2.25  0.  0.
227  2.26  0.  0.
228  2.27  0.  0.
229  2.28  0.  0.
230  2.29  0.  0.
231  2.30  0.  0.
232  2.31  0.  0.
233  2.32  0.  0.
234  2.33  0.  0.
235  2.34  0.  0.
236  2.35  0.  0.
237  2.36  0.  0.
238  2.37  0.  0.
239  2.38  0.  0.
240  2.39  0.  0.
241  2.40  0.  0.
242  2.41  0.  0.
243  2.42  0.  0.
244  2.43  0.  0.
245  2.44  0.  0.
246  2.45  0.  0.
247  2.46  0.  0.
248  2.47  0.  0.
249  2.48  0.  0.
250  2.49  0.  0.
251  2.50  0.  0.
252  2.51  0.  0.
253  2.52  0.  0.
254  2.53  0.  0.
255  2.54  0.  0.
256  2.55  0.  0.
257  2.56  0.  0.
258  2.57  0.  0.
259  2.58  0.  0.
260  2.59  0.  0.
261  2.60  0.  0.
262  2.61  0.  0.
263  2.62  0.  0.
264  2.63  0.  0.
265  2.64  0.  0.
266  2.65  0.  0.
267  2.66  0.  0.
268  2.67  0.  0.
269  2.68  0.  0.
270  2.69  0.  0.
271  2.70  0.  0.
272  2.71  0.  0.
273  2.72  0.  0.
274  2.73  0.  0.
275  2.74  0.  0.
276  2.75  0.  0.
277  2.76  0.  0.
278  2.77  0.  0.
279  2.78  0.  0.
280  2.79  0.  0.
281  2.80  0.  0.
282  2.81  0.  0.
283  2.82  0.  0.
284  2.83  0.  0.
285  2.84  0.  0.
286  2.85  0.  0.
287  2.86  0.  0.
288  2.87  0.  0.
289  2.88  0.  0.
290  2.89  0.  0.
291  2.90  0.  0.
292  2.91  0.  0.
293  2.92  0.  0.
294  2.93  0.  0.
295  2.94  0.  0.
296  2.95  0.  0.
297  2.96  0.  0.
298  2.97  0.  0.
299  2.98  0.  0.
300  2.99  0.  0.
301  3.00  0.  0.
302  3.01  0.  0.
303  3.02  0.  0.
304  3.03  0.  0.
305  3.04  0.  0.
306  3.05  0.  0.
307  3.06  0.  0.
308  3.07  0.  0.
309  3.08  0.  0.
310  3.09  0.  0.
311  3.10  0.  0.
312  3.11  0.  0.
313  3.12  0.  0.
314  3.13  0.  0.
315  3.14  0.  0.
316  3.15  0.  0.
317  3.16  0.  0.
318  3.17  0.  0.
319  3.18  0.  0.
320  3.19  0.  0.
321  3.20  0.  0.
322  3.21  0.  0.
323  3.22  0.  0.
324  3.23  0.  0.
325  3.24  0.  0.
326  3.25  0.  0.
327  3.26  0.  0.
328  3.27  0.  0.
329  3.28  0.  0.
330  3.29  0.  0.
331  3.30  0.  0.
332  3.31  0.  0.
333  3.32  0.  0.
334  3.33  0.  0.
335  3.34  0.  0.
336  3.35  0.  0.
337  3.36  0.  0.
338  3.37  0.  0.
339  3.38  0.  0.
340  3.39  0.  0.
341  3.40  0.  0.
342  3.41  0.  0.
343  3.42  0.  0.
344  3.43  0.  0.
345  3.44  0.  0.
346  3.45  0.  0.
347  3.46  0.  0.
348  3.47  0.  0.
349  3.48  0.  0.
350  3.49  0.  0.
351  3.50  0.  0.
352  3.51  0.  0.
353  3.52  0.  0.
354  3.53  0.  0.
355  3.54  0.  0.
356  3.55  0.  0.
357  3.56  0.  0.
358  3.57  0.  0.
359  3.58  0.  0.
360  3.59  0.  0.
361  3.60  0.  0.
362  3.61  0.  0.
363  3.62  0.  0.
364  3.63  0.  0.
365  3.64  0.  0.
366  3.65  0.  0.
367  3.66  0.  0.
368  3.67  0.  0.
369  3.68  0.  0.
370  3.69  0.  0.
371  3.70  0.  0.
372  3.71  0.  0.
373  3.72  0.  0.
374  3.73  0.  0.
375  3.74  0.  0.
376  3.75  0.  0.
377  3.76  0.  0.
378  3.77  0.  0.
379  3.78  0.  0.
380  3.79  0.  0.
381  3.80  0.  0.
382  3.81  0.  0.
383  3.82  0.  0.
384  3.83  0.  0.
385  3.84  0.  0.
386  3.85  0.  0.
387  3.86  0.  0.
388  3.87  0.  0.
389  3.88  0.  0.
390  3.89  0.  0.
391  3.90  0.  0.
392  3.91  0.  0.
393  3.92  0.  0.
394  3.93  0.  0.
395  3.94  0.  0.
396  3.95  0.  0.
397  3.96  0.  0.
398  3.97  0.  0.
399  3.98  0.  0.
400  3.99  0.  0.
401  4.00  0.  0.
402  4.01  0.  0.
403  4.02  0.  0.
404  4.03  0.  0.
405  4.04  0.  0.
406  4.05  0.  0.
407  4.06  0.  0.
408  4.07  0.  0.
409  4.08  0.  0.
410  4.09  0.  0.
411  4.10  0.  0.
412  4.11  0.  0.
413  4.12  0.  0.
414  4.13  0.  0.
415  4.14  0.  0.
416  4.15  0.  0.
417  4.16  0.  0.
418  4.17  0.  0.
419  4.18  0.  0.
420  4.19  0.  0.
421  4.20  0.  0.
422  4.21  0.  0.
423  4.22  0.  0.
424  4.23  0.  0.
425  4.24  0.  0.
426  4.25  0.  0.
427  4.26  0.  0.
428  4.27  0.  0.
429  4.28  0.  0.
430  4.29  0.  0.
431  4.30  0.  0.
432  4.31  0.  0.
433  4.32  0.  0.
434  4.33  0.  0.
435  4.34  0.  0.
436  4.35  0.  0.
437  4.36  0.  0.
438  4.37  0.  0.
439  4.38  0.  0.
440  4.39  0.  0.
441  4.40  0.  0.
442  4.41  0.  0.
443  4.42  0.  0.
444  4.43  0.  0.
445  4.44  0.  0.
446  4.45  0.  0.
447  4.46  0.  0.
448  4.47  0.  0.
449  4.48  0.  0.
450  4.49  0.  0.
451  4.50  0.  0.
452  4.51  0.  0.
453  4.52  0.  0.
454  4.53  0.  0.
455  4.54  0.  0.
456  4.55  0.  0.
457  4.56  0.  0.
458  4.57  0.  0.
459  4.58  0.  0.
460  4.59  0.  0.
461  4.60  0.  0.
462  4.61  0.  0.
463  4.62  0.  0.
464  4.63  0.  0.
465  4.64  0.  0.
466  4.65  0.  0.
467  4.66  0.  0.
468  4.67  0.  0.
469  4.68  0.  0.
470  4.69  0.  0.
471  4.70  0.  0.
472  4.71  0.  0.
473  4.72  0.  0.
474  4.73  0.  0.
475  4.74  0.  0.
476  4.75  0.  0.
477  4.76  0.  0.
478  4.77  0.  0.
479  4.78  0.  0.
480  4.79  0.  0.
481  4.80  0.  0.
482  4.81  0.  0.
483  4.82  0.  0.
484  4.83  0.  0.
485  4.84  0.  0.
486  4.85  0.  0.
487  4.86  0.  0.
488  4.87  0.  0.
489  4.88  0.  0.
490  4.89  0.  0.
491  4.90  0.  0.
492  4.91  0.  0.
493  4.92  0.  0.
494  4.93  0.  0.
495  4.94  0.  0.
496  4.95  0.  0.
497  4.96  0.  0.
498  4.97  0.  0.
499  4.98  0.  0.
500  4.99  0.  0.
501  5.00  0.  0.
502  5.01  0.  0.
503  5.02  0.  0.
504  5.03  0.  0.
505  5.04  0.  0.
506  5.05  0.  0.
507  5.06  0.  0.
508  5.07  0.  0.
509  5.08  0.  0.
510  5.09  0.  0.
511  5.10  0.  0.
512  5.11  0.  0.
513  5.12  0.  0.
514  5.13  0.  0.
515  5.14  0.  0.
516  5.15  0.  0.
517  5.16  0.  0.
518  5.17  0.  0.
519  5.18  0.  0.
520  5.19  0.  0.
521  5.20  0.  0.
522  5.21  0.  0.
523  5.22  0.  0.
524  5.23  0.  0.
525  5.24  0.  0.
526  5.25  0.  0.
527  5.26  0.  0.
528  5.27  0.  0.
529  5.28  0.  0.
530  5.29  0.  0.
531  5.30  0.  0.
532  5.31  0.  0.
533  5.32  0.  0.
534  5.33  0.  0.
535  5.34  0.  0.
536  5.35  0.  0.
537  5.36  0.  0.
538  5.37  0.  0.
539  5.38  0.  0.
540  5.39  0.  0.
541  5.40  0.  0.
542  5.41  0.  0.
543  5.42  0.  0.
544  5.43  0.  0.
545  5.44  0.  0.
546  5.45  0.  0.
547  5.46  0.  0.
548  5.47  0.  0.
549  5.48  0.  0.
550  5.49  0.  0.
551  5.50  0.  0.
552  5.51  0.  0.
553  5.52  0.  0.
554  5.53  0.  0.
555  5.54  0.  0.
556  5.55  0.  0.
557  5.56  0.  0.
558  5.57  0.  0.
559  5.58  0.  0.
560  5.59  0.  0.
561  5.60  0.  0.
562  5.61  0.  0.
563  5.62  0.  0.
564  5.63  0.  0.
565  5.64  0.  0.
566  5.65  0.  0.
567  5.66  0.  0.
568  5.67  0.  0.
569  5.68  0.  0.
570  5.69  0.  0.
571  5.70  0.  0.
572  5.71  0.  0.
573  5.72  0.  0.
574  5.73  0.  0.
575  5.74  0.  0.
576  5.75  0.  0.
577  5.76  0.  0.
578  5.77  0.  0.
579  5.78  0.  0.
580  5.79  0.  0.
581  5.80  0.  0.
582  5.81  0.  0.
583  5.82  0.  0.
584  5.83  0.  0.
585  5.84  0.  0.
586  5.85  0.  0.
587  5.86  0.  0.
588  5.87  0.  0.
589  5.88  0.  0.
590  5.89  0.  0.
591  5.90  0.  0.
592  5.91  0.  0.
593  5.92  0.  0.
594  5.93  0.  0.
595  5.94  0.  0.
596  5.95  0.  0.
597  5.96  0.  0.
598  5.97  0.  0.
599  5.98  0.  0.
600  5.99  0.  0.
1                         5.3200901251549E+00  8.6358772267558E-01
1  0.0000000000000E+00  6.7311742429910E-09 -1.3710415039392E-08
2  1.0000000000000E-02  1.0967821274358E-03 -1.4643641379866E-03
3  2.0000000000000E-02  4.3727103583340E-03 -5.8292243362674E-03
4  3.0000000000000E-02  9.7847685437580E-03 -1.3010365785638E-02
5  4.0000000000000E-02  1.7262053617964E-02 -2.2869028779051E-02
6  5.0000000000000E-02  2.6706948009127E-02 -3.5214278934784E-02
7  6.0000000000000E-02  3.7996734502730E-02 -4.9806271469845E-02
8  7.0000000000000E-02  5.0985627543074E-02 -6.6360356503651E-02
9  8.0000000000000E-02  6.5507188227209E-02 -8.4551958661588E-02
10  9.0000000000000E-02  8.1377084025824E-02 -1.0402215158593E-01
11  1.0000000000000E-01  9.8396148654868E-02 -1.2438383654747E-01
12  1.1000000000000E-01  1.1635369260813E-01 -1.4522842436594E-01
13  1.2000000000000E-01  1.3503101072224E-01 -1.6613291144893E-01
14  1.3000000000000E-01  1.5420502984726E-01 -1.8666723408319E-01
15  1.4000000000000E-01  1.7365203729156E-01 -2.0640178026515E-01
16  1.5000000000000E-01  1.9315142923730E-01 -2.2491493542065E-01
17  1.6000000000000E-01  2.1248941780878E-01 -2.4180053738613E-01
18  1.7000000000000E-01  2.3146263592917E-01 -2.5667511702641E-01
19  1.8000000000000E-01  2.4988158051804E-01 -2.6918480383585E-01
20  1.9000000000000E-01  2.6757383694225E-01 -2.7901178077014E-01
21  2.0000000000000E-01  2.8438703090319E-01 -2.8588017931411E-01
22  2.1000000000000E-01  3.0019145807463E-01 -2.8956131430646E-01
23  2.2000000000000E-01  3.1488234673730E-01 -2.8987816818837E-01
24  2.3000000000000E-01  3.2838171431354E-01 -2.8670904596673E-01
25  2.4000000000000E-01  3.4063978500345E-01 -2.7999033510730E-01
26  2.5000000000000E-01  3.5163594256716E-01 -2.6971831860225E-01
27  2.6000000000000E-01  3.6137919958115E-01 -2.5595000437530E-01
28  2.7000000000000E-01  3.6990817210990E-01 -2.3880294976627E-01
29  2.8000000000000E-01  3.7729055655942E-01 -2.1845407583598E-01
30  2.9000000000000E-01  3.8362211339697E-01 -1.9513748240323E-01
31  3.0000000000000E-01  3.8902517030778E-01 -1.6914129081711E-01
32  3.1000000000000E-01  3.9364666509380E-01 -1.4080355722880E-01
33  3.2000000000000E-01  3.9765575607971E-01 -1.1050731430947E-01
34  3.3000000000000E-01  4.0124103486076E-01 -7.8674813725838E-02
35  3.4000000000000E-01  4.0460738279486E-01 -4.5761055003539E-02
36  3.5000000000000E-01  4.0797251860167E-01 -1.2246698467944E-02
37  3.6000000000000E-01  4.1156328969098E-01  2.1369529442479E-02
38  3.7000000000000E-01  4.1561176431353E-01  5.4578821217811E-02
39  3.8000000000000E-01  4.2035118523828E-01  8.6870539200420E-02
40  3.9000000000000E-01  4.2601184834906E-01  1.1774060261772E-01
41  4.0000000000000E-01  4.3281697127274E-01  1.4669987764536E-01
42  4.1000000000000E-01  4.4097861787042E-01  1.7328243617557E-01
43  4.2000000000000E-01  4.5069374412188E-01  1.9705354981114E-01
44  4.3000000000000E-01  4.6214042961335E-01  2.1761728854420E-01
45  4.4000000000000E-01  4.7547435651003E-01  2.3462359858037E-01
46  4.5000000000000E-01  4.9082559458929E-01  2.4777474077031E-01
47  4.6000000000000E-01  5.0829574667033E-01  2.5683098001748E-01
48  4.7000000000000E-01  5.2795550366184E-01  2.6161542672139E-01
49  4.8000000000000E-01  5.4984265253146E-01  2.6201794363593E-01
50  4.9000000000000E-01  5.7396057386617E-01  2.5799804529714E-01
51  5.0000000000000E-01  6.0027725843655E-01  2.4958673220115E-01
52  5.1000000000000E-01  6.2872486440795E-01  2.3688721797079E-01
53  5.2000000000000E-01  6.5919982867145E-01  2.2007452459921E-01
54  5.3000000000000E-01  6.9156353732124E-01  1.9939393824773E-01
55  5.4000000000000E-01  7.2564355170731E-01  1.7515833574153E-01
56  5.5000000000000E-01  7.6123537787563E-01  1.4774440958045E-01
57  5.6000000000000E-01  7.9810475870155E-01  1.1758783669375E-01
58  5.7000000000000E-01  8.3599045975824E-01  8.5177453046465E-02
59  5.8000000000000E-01  8.7460751206736E-01  5.1048512290116E-02
60  5.9000000000000E-01  9.1365086747768E-01  1.5775121687181E-02
61  6.0000000000000E-01  9.5279941562494E-01 -2.0038037710385E-02
62  6.1000000000000E-01  9.9172030535196E-01 -5.5764587405198E-02
63  6.2000000000000E-01  1.0300735082090E+00 -9.0765794562350E-02
64  6.3000000000000E-01  1.0675165572982E+00 -1.2440024347026E-01
65  6.4000000000000E-01  1.1037093913458E+00 -1.5603369032341E-01
66  6.5000000000000E-01  1.1383192315391E+00 -1.8504895182690E-01
67  6.6000000000000E-01  1.1710254174026E+00 -2.1085567589208E-01
68  6.7000000000000E-01  1.2015241278262E+00 -2.3289984275461E-01
69  6.8000000000000E-01  1.2295329143234E+00 -2.5067284722122E-01
70  6.9000000000000E-01  1.2547949756705E+00 -2.6372001742453E-01
71  7.0000000000000E-01  1.2770831062514E+00 -2.7164843238732E-01
72  7.1000000000000E-01  1.2962032546504E+00 -2.7413390978349E-01
73  7.2000000000000E-01  1.3119976342639E+00 -2.7092704641773E-01
74  7.3000000000000E-01  1.3243473338516E+00 -2.6185820697836E-01
75  7.4000000000000E-01  1.3331743829480E+00 -2.4684137136922E-01
76  7.5000000000000E-01  1.3384432347980E+00 -2.2587676719333E-01
77  7.6000000000000E-01  1.3401616378672E+00 -1.9905223150726E-01
78  7.7000000000000E-01  1.3383808758729E+00 -1.6654326454395E-01
79  7.8000000000000E-01  1.3331953655732E+00 -1.2861175743984E-01
80  7.9000000000000E-01  1.3247416110880E+00 -8.5603395816789E-02
81  8.0000000000000E-01  1.3131965231808E+00 -3.7943761068269E-02
82  8.1000000000000E-01  1.2987751215435E+00  1.3866828917838E-02
83  8.2000000000000E-01  1.2817276475723E+00  6.9259678398367E-02
84  8.3000000000000E-01  1.2623361242422E+00  1.2760519181602E-01
85  8.4000000000000E-01  1.2409104083523E+00  1.8822137352283E-01
86  8.5000000000000E-01  1.2177837884832E+00  2.5038323498008E-01
87  8.6000000000000E-01  1.1933081893615E+00  3.1333298027561E-01
88  8.7000000000000E-01  1.1678490498445E+00  3.7629082761749E-01
89  8.8000000000000E-01  1.1417799473159E+00  4.3846631326631E-01
90  8.9000000000000E-01  1.1154770458339E+00  4.9906991534350E-01
91  9.0000000000000E-01  1.0893134488124E+00  5.5732482825511E-01
92  9.1000000000000E-01  1.0636535392895E+00  6.1247871422312E-01
93  9.2000000000000E-01  1.0388473918985E+00  6.6381525670464E-01
94  9.3000000000000E-01  1.0152253404725E+00  7.1066534135552E-01
95  9.4000000000000E-01  9.9309278379378E-01  7.5241769366963E-01
96  9.5000000000000E-01  9.7272530932558E-01  7.8852880847215E-01
97  9.6000000000000E-01  9.5436421089724E-01  8.1853201500148E-01
98  9.7000000000000E-01  9.3821247127181E-01  8.4204553227335E-01
99  9.8000000000000E-01  9.2443127439338E-01  8.5877938264793E-01
100  9.9000000000000E-01  9.1313710495783E-01  8.6854104683991E-01
101  1.0000000000000E+00  9.0439948487782E-01  8.7123976081849E-01
102  1.0100000000000E+00  8.9823938733407E-01  8.6688937389170E-01
103  1.0200000000000E+00  8.9462835953562E-01  8.5560970751790E-01
104  1.0300000000000E+00  8.9348837519373E-01  8.3762637573259E-01
105  1.0400000000000E+00  8.9469242719791E-01  8.1326905020821E-01
106  1.0500000000000E+00  8.9806586020077E-01  7.8296817559590E-01
107  1.0600000000000E+00  9.0338843194264E-01  7.4725016357448E-01
108  1.0700000000000E+00  9.1039708134732E-01  7.0673111659410E-01
109  1.0800000000000E+00  9.1878937081017E-01  6.6210915441540E-01
110  1.0900000000000E+00  9.2822755990577E-01  6.1415543773555E-01
111  1.1000000000000E+00  9.3834325805041E-01  5.6370400328046E-01
112  1.1100000000000E+00  9.4874259465583E-01  5.1164054333260E-01
113  1.1200000000000E+00  9.5901183712914E-01  4.5889027949645E-01
114  1.1300000000000E+00  9.6872337982165E-01  4.0640509534793E-01
115  1.1400000000000E+00  9.7744202085512E-01  3.5515010516386E-01
116  1.1500000000000E+00  9.8473143871252E-01  3.0608984606901E-01
117  1.1600000000000E+00  9.9016077669917E-01  2.6017428841288E-01
118  1.1700000000000E+00  9.9331124088811E-01  2.1832486393578E-01
119  1.1800000000000E+00  9.9378261603200E-01  1.8142071316385E-01
120  1.1900000000000E+00  9.9119960416702E-01  1.5028535245738E-01
121  1.2000000000000E+00  9.8521789226912E-01  1.2567395719749E-01
122  1.2100000000000E+00  9.7552985831668E-01  1.0826145080805E-01
123  1.2200000000000E+00  9.6186982947995E-01  9.8631579645474E-02
124  1.2300000000000E+00  9.4401881176246E-01  9.7267141540796E-02
125  1.2400000000000E+00  9.2180861729201E-01  1.0454152088455E-01
126  1.2500000000000E+00  8.9512532343196E-01  1.2071166596382E-01
127  1.2600000000000E+00  8.6391200684654E-01  1.4591262503060E-01
128  1.2700000000000E+00  8.2817070558695E-01  1.8015373634085E-01
129  1.2800000000000E+00  7.8796357288438E-01  2.2331654476297E-01
130  1.2900000000000E+00  7.4341319757743E-01  2.7515449364362E-01
131  1.3000000000000E+00  6.9470207784730E-01  3.3529441568946E-01
132  1.3100000000000E+00  6.4207124691002E-01  4.0323982125812E-01
133  1.3200000000000E+00  5.8581806138125E-01  4.7837595693967E-01
134  1.3300000000000E+00  5.2629317513974E-01  5.5997658175337E-01