Er    ONCVPSP-4.0.1  r_core=   2.00187   1.60440   1.90833   1.40655
68.0000     22.0000      230112    zatom,zion,pspd
8      11   3     4   600     0    pspcod,pspxc,lmax,lloc,mmax,r2well
5.99000000  4.00000000  0.00000000    rchrg fchrg qchrg
2     2     2     2     0    nproj
1     1           extension_switch
0                         7.2023921484916E+00  1.0024524767944E+00
1  0.0000000000000E+00  7.7061634851106E-11 -2.1815812698001E-10
2  1.0000000000000E-02  4.3594891631367E-02 -3.4448927478662E-03
3  2.0000000000000E-02  8.7161158461246E-02 -6.9174698648228E-03
4  3.0000000000000E-02  1.3067001701926E-01 -1.0444891822908E-02
5  4.0000000000000E-02  1.7409236856634E-01 -1.4053276961354E-02
6  5.0000000000000E-02  2.1739864661342E-01 -1.7767194517606E-02
7  6.0000000000000E-02  2.6055867056878E-01 -2.1609174419465E-02
8  7.0000000000000E-02  3.0354150746588E-01 -2.5599239167201E-02
9  8.0000000000000E-02  3.4631534364625E-01 -2.9754462916292E-02
10  9.0000000000000E-02  3.8884736817706E-01 -3.4088562602260E-02
11  1.0000000000000E-01  4.3110366967065E-01 -3.8611525631558E-02
12  1.1000000000000E-01  4.7304914804452E-01 -4.3329278299528E-02
13  1.2000000000000E-01  5.1464744261704E-01 -4.8243398691132E-02
14  1.3000000000000E-01  5.5586087777606E-01 -5.3350877376503E-02
15  1.4000000000000E-01  5.9665042728800E-01 -5.8643928735285E-02
16  1.5000000000000E-01  6.3697569813368E-01 -6.4109855235590E-02
17  1.6000000000000E-01  6.7679493456679E-01 -6.9730966460123E-02
18  1.7000000000000E-01  7.1606504289269E-01 -7.5484554118306E-02
19  1.8000000000000E-01  7.5474163726101E-01 -8.1342923714675E-02
20  1.9000000000000E-01  7.9277910655714E-01 -8.7273482965241E-02
21  2.0000000000000E-01  8.3013070226740E-01 -9.3238886471132E-02
22  2.1000000000000E-01  8.6674864698133E-01 -9.9197235577586E-02
23  2.2000000000000E-01  9.0258426298554E-01 -1.0510233177240E-01
24  2.3000000000000E-01  9.3758812019739E-01 -1.1090398141649E-01
25  2.4000000000000E-01  9.7171020248654E-01 -1.1654834905647E-01
26  2.5000000000000E-01  1.0049000912392E+00 -1.2197835604941E-01
27  2.6000000000000E-01  1.0371071648358E+00 -1.2713412074032E-01
28  2.7000000000000E-01  1.0682808125399E+00 -1.3195343597615E-01
29  2.8000000000000E-01  1.0983706611358E+00 -1.3637227932372E-01
30  2.9000000000000E-01  1.1273268125058E+00 -1.4032535098463E-01
31  3.0000000000000E-01  1.1551000902072E+00 -1.4374663407485E-01
32  3.1000000000000E-01  1.1816422929971E+00 -1.4656997166172E-01
33  3.2000000000000E-01  1.2069064531569E+00 -1.4872965473134E-01
34  3.3000000000000E-01  1.2308470973914E+00 -1.5016101509711E-01
35  3.4000000000000E-01  1.2534205080251E+00 -1.5080101715746E-01
36  3.5000000000000E-01  1.2745849821811E+00 -1.5058884237027E-01
37  3.6000000000000E-01  1.2943010866161E+00 -1.4946646033325E-01
38  3.7000000000000E-01  1.3125319058936E+00 -1.4737918044495E-01
39  3.8000000000000E-01  1.3292432816097E+00 -1.4427617826989E-01
40  3.9000000000000E-01  1.3444040404374E+00 -1.4011099094265E-01
41  4.0000000000000E-01  1.3579862088310E+00 -1.3484197621879E-01
42  4.1000000000000E-01  1.3699652123286E+00 -1.2843273011285E-01
43  4.2000000000000E-01  1.3803200575061E+00 -1.2085245845292E-01
44  4.3000000000000E-01  1.3890334947748E+00 -1.1207629812461E-01
45  4.4000000000000E-01  1.3960921603686E+00 -1.0208558427053E-01
46  4.5000000000000E-01  1.4014866960381E+00 -9.0868060249767E-02
47  4.6000000000000E-01  1.4052118451605E+00 -7.8418027742392E-02
48  4.7000000000000E-01  1.4072665241752E+00 -6.4736434998361E-02
49  4.8000000000000E-01  1.4076538684691E+00 -4.9830901875357E-02
50  4.9000000000000E-01  1.4063812520655E+00 -3.3715680978048E-02
51  5.0000000000000E-01  1.4034602807005E+00 -1.6411554896058E-02
52  5.1000000000000E-01  1.3989067581163E+00  2.0543297675238E-03
53  5.2000000000000E-01  1.3927406256412E+00  2.1648690187953E-02
54  5.3000000000000E-01  1.3849858753771E+00  4.2332394848976E-02
55  5.4000000000000E-01  1.3756704375600E+00  6.4060808049030E-02
56  5.5000000000000E-01  1.3648260429009E+00  8.6784187959404E-02
57  5.6000000000000E-01  1.3524880609553E+00  1.1044813417612E-01
58  5.7000000000000E-01  1.3386953157978E+00  1.3499408010655E-01
59  5.8000000000000E-01  1.3234898804988E+00  1.6035982497195E-01
60  5.9000000000000E-01  1.3069168521085E+00  1.8648009969511E-01
61  6.0000000000000E-01  1.2890241090465E+00  2.1328716048377E-01
62  6.1000000000000E-01  1.2698620529722E+00  2.4071140352261E-01
63  6.2000000000000E-01  1.2494833373690E+00  2.6868199385224E-01
64  6.3000000000000E-01  1.2279425852145E+00  2.9712750125096E-01
65  6.4000000000000E-01  1.2052960982246E+00  3.2597653574484E-01
66  6.5000000000000E-01  1.1816015602526E+00  3.5515837525968E-01
67  6.6000000000000E-01  1.1569177374947E+00  3.8460357789612E-01
68  6.7000000000000E-01  1.1313041781952E+00  4.1424457135871E-01
69  6.8000000000000E-01  1.1048209145660E+00  4.4401621220256E-01
70  6.9000000000000E-01  1.0775281696237E+00  4.7385630777672E-01
71  7.0000000000000E-01  1.0494860716152E+00  5.0370609404178E-01
72  7.1000000000000E-01  1.0207543786427E+00  5.3351066281851E-01
73  7.2000000000000E-01  9.9139221600858E-01  5.6321933248210E-01
74  7.3000000000000E-01  9.6145782869321E-01  5.9278595665001E-01
75  7.4000000000000E-01  9.3100835123933E-01  6.2216916601621E-01
76  7.5000000000000E-01  9.0009959715636E-01  6.5133253915597E-01
77  7.6000000000000E-01  8.6878586977676E-01  6.8024469885810E-01
78  7.7000000000000E-01  8.3711979629284E-01  7.0887933132927E-01
79  7.8000000000000E-01  8.0515218647973E-01  7.3721512645064E-01
80  7.9000000000000E-01  7.7293191737151E-01  7.6523563814431E-01
81  8.0000000000000E-01  7.4050584490197E-01  7.9292906481669E-01
82  8.1000000000000E-01  7.0791874325380E-01  8.2028795078153E-01
83  8.2000000000000E-01  6.7521327238113E-01  8.4730881051643E-01
84  8.3000000000000E-01  6.4242997388232E-01  8.7399167856707E-01
85  8.4000000000000E-01  6.0960729510593E-01  9.0033958887194E-01
86  8.5000000000000E-01  5.7678164107462E-01  9.2635798822995E-01
87  8.6000000000000E-01  5.4398745351155E-01  9.5205408956494E-01
88  8.7000000000000E-01  5.1125731595447E-01  9.7743617154518E-01
89  8.8000000000000E-01  4.7862208364599E-01  1.0025128319857E+00
90  8.9000000000000E-01  4.4611103659683E-01  1.0272922032871E+00
91  9.0000000000000E-01  4.1375205393428E-01  1.0517811389397E+00
92  9.1000000000000E-01  3.8157180737264E-01  1.0759843808389E+00
93  9.2000000000000E-01  3.4959597137828E-01  1.0999037178069E+00
94  9.3000000000000E-01  3.1784944735052E-01  1.1235371462971E+00
95  9.4000000000000E-01  2.8635659890317E-01  1.1468780447565E+00
96  9.5000000000000E-01  2.5514149511161E-01  1.1699143735369E+00
97  9.6000000000000E-01  2.2422815838835E-01  1.1926279125720E+00
98  9.7000000000000E-01  1.9364081346821E-01  1.2149935492704E+00
99  9.8000000000000E-01  1.6340413382350E-01  1.2369786292003E+00
100  9.9000000000000E-01  1.3354348169209E-01  1.2585423821709E+00
101  1.0000000000000E+00  1.0408513778846E-01  1.2796354362294E+00
102  1.0100000000000E+00  7.5056516681608E-02  1.3001994318877E+00
103  1.0200000000000E+00  4.6486363765648E-02  1.3201667485778E+00
104  1.0300000000000E+00  1.8404929722264E-02  1.3394603548800E+00
105  1.0400000000000E+00 -9.1558816204903E-03  1.3579937934898E+00
106  1.0500000000000E+00 -3.6162396086555E-02  1.3756713111653E+00
107  1.0600000000000E+00 -6.2579086580714E-02  1.3923881430286E+00
108  1.0700000000000E+00 -8.8368528998491E-02  1.4080309595617E+00
109  1.0800000000000E+00 -1.1349140029892E-01  1.4224784834459E+00
110  1.0900000000000E+00 -1.3790652220222E-01  1.4356022820116E+00
111  1.1000000000000E+00 -1.6157095369896E-01  1.4472677394969E+00
112  1.1100000000000E+00 -1.8444013522086E-01  1.4573352115329E+00
113  1.1200000000000E+00 -2.0646808691742E-01  1.4656613622627E+00
114  1.1300000000000E+00 -2.2760766300429E-01  1.4721006822528E+00
115  1.1400000000000E+00 -2.4781086358450E-01  1.4765071828245E+00
116  1.1500000000000E+00 -2.6702920469165E-01  1.4787362596312E+00
117  1.1600000000000E+00 -2.8521414654624E-01  1.4786467151599E+00
118  1.1700000000000E+00 -3.0231757915244E-01  1.4761029263698E+00
119  1.1800000000000E+00 -3.1829236337101E-01  1.4709771398087E+00
120  1.1900000000000E+00 -3.3309292448277E-01  1.4631518722879E+00
121  1.2000000000000E+00 -3.4667589398689E-01  1.4525223904711E+00
122  1.2100000000000E+00 -3.5900079394435E-01  1.4389992375219E+00
123  1.2200000000000E+00 -3.7003075657888E-01  1.4225107692357E+00
124  1.2300000000000E+00 -3.7973327004287E-01  1.4030056557504E+00
125  1.2400000000000E+00 -3.8808093926453E-01  1.3804552980299E+00
126  1.2500000000000E+00 -3.9505224856648E-01  1.3548561007189E+00
127  1.2600000000000E+00 -4.0063231028073E-01  1.3262315346442E+00
128  1.2700000000000E+00 -4.0481358087923E-01  1.2946339132091E+00
129  1.2800000000000E+00 -4.0759652313657E-01  1.2601457970001E+00
130  1.2900000000000E+00 -4.0899018955666E-01  1.2228809301581E+00
131  1.3000000000000E+00 -4.0901269870888E-01  1.1829846004045E+00
132  1.3100000000000E+00 -4.0769157217570E-01  1.1406333018692E+00
133  1.3200000000000E+00 -4.0506389553359E-01  1.0960335661313E+00
134  1.3300000000000E+00 -4.0117626213572E-01  1.0494198120150E+00
135  1.3400000000000E+00 -3.9608445341370E-01  1.0010510486362E+00
136  1.3500000000000E+00 -3.8985280393394E-01  9.5120624883392E-01
137  1.3600000000000E+00 -3.8255319353657E-01  9.0017819149909E-01
138  1.3700000000000E+00 -3.7426360251630E-01  8.4826555127912E-01
139  1.3800000000000E+00 -3.6506615892678E-01  7.9576299257631E-01
140  1.3900000000000E+00 -3.5504459932987E-01  7.4294899960758E-01
141  1.4000000000000E+00 -3.4428107224976E-01  6.9007123918262E-01
142  1.4100000000000E+00 -3.3285208099350E-01  6.3732851914562E-01
143  1.4200000000000E+00 -3.2082617000325E-01  5.8486420245958E-01
144  1.4300000000000E+00 -3.0826939433984E-01  5.3280269740408E-01
145  1.4400000000000E+00 -2.9524908766800E-01  4.8127271243825E-01
146  1.4500000000000E+00 -2.8183352184972E-01  4.3040615919593E-01
147  1.4600000000000E+00 -2.6809161794511E-01  3.8033741738502E-01
148  1.4700000000000E+00 -2.5409260595361E-01  3.3120233166605E-01
149  1.4800000000000E+00 -2.3990567336942E-01  2.8313717458956E-01
150  1.4900000000000E+00 -2.2559960502007E-01  2.3627758107019E-01
151  1.5000000000000E+00 -2.1124241672829E-01  1.9075746100901E-01
152  1.5100000000000E+00 -1.9690098593446E-01  1.4670789988694E-01
153  1.5200000000000E+00 -1.8264068253557E-01  1.0425605760430E-01
154  1.5300000000000E+00 -1.6852500323249E-01  6.3524075934208E-02
155  1.5400000000000E+00 -1.5461521268938E-01  2.4628004993721E-02
156  1.5500000000000E+00 -1.4096999483317E-01 -1.2323240724885E-02
157  1.5600000000000E+00 -1.2764511781677E-01 -4.7228885226367E-02
158  1.5700000000000E+00 -1.1469311468656E-01 -7.9997248054245E-02
159  1.5800000000000E+00 -1.0216298512009E-01 -1.1054663508272E-01
160  1.5900000000000E+00 -9.0099918550900E-02 -1.3880616596240E-01
161  1.6000000000000E+00 -7.8545043299032E-02 -1.6471652081374E-01
162  1.6100000000000E+00 -6.7535203479013E-02 -1.8823060171916E-01
163  1.6200000000000E+00 -5.7102766224022E-02 -2.0931410064759E-01
164  1.6300000000000E+00 -4.7275461299949E-02 -2.2794596723344E-01
165  1.6400000000000E+00 -3.8076254905508E-02 -2.4411877070105E-01
166  1.6500000000000E+00 -2.9523259186434E-02 -2.5783895103644E-01
167  1.6600000000000E+00 -2.1629678669148E-02 -2.6912695553899E-01
168  1.6700000000000E+00 -1.4403794471952E-02 -2.7801725800240E-01
169  1.6800000000000E+00 -7.8489868419467E-03 -2.8455825872020E-01
170  1.6900000000000E+00 -1.9637961917719E-03 -2.8881206472117E-01
171  1.7000000000000E+00  3.2579775260353E-03 -2.9085415068634E-01
172  1.7100000000000E+00  7.8271376417865E-03 -2.9077290219397E-01
173  1.7200000000000E+00  1.1758916659213E-02 -2.8866904398629E-01
174  1.7300000000000E+00  1.5072766436998E-02 -2.8465495707234E-01
175  1.7400000000000E+00  1.7792114237019E-02 -2.7885388960938E-01
176  1.7500000000000E+00  1.9944086522125E-02 -2.7139906746093E-01
177  1.7600000000000E+00  2.1559202701588E-02 -2.6243271133262E-01
178  1.7700000000000E+00  2.2671041339102E-02 -2.5210496840872E-01
179  1.7800000000000E+00  2.3315881491767E-02 -2.4057276681727E-01
180  1.7900000000000E+00  2.3532322639261E-02 -2.2799860412908E-01
181  1.8000000000000E+00  2.3360885239514E-02 -2.1454927547133E-01
182  1.8100000000000E+00  2.2843596653129E-02 -2.0039455711923E-01
183  1.8200000000000E+00  2.2023566947514E-02 -1.8570586043745E-01
184  1.8300000000000E+00  2.0944553406886E-02 -1.7065484907969E-01
185  1.8400000000000E+00  1.9650524364941E-02 -1.5541205765695E-01
186  1.8500000000000E+00  1.8185221133843E-02 -1.4014550449341E-01
187  1.8600000000000E+00  1.6591724032552E-02 -1.2501931887864E-01
188  1.8700000000000E+00  1.4912027500679E-02 -1.1019239764776E-01
189  1.8800000000000E+00  1.3186611435787E-02 -9.5817056933520E-02
190  1.8900000000000E+00  1.1454083944856E-02 -8.2037887066080E-02
191  1.9000000000000E+00  9.7507288853314E-03 -6.8990363606251E-02
192  1.9100000000000E+00  8.1091330717610E-03 -5.6796860410899E-02
193  1.9200000000000E+00  6.5584231237891E-03 -4.5567137413225E-02
194  1.9300000000000E+00  5.1270227069126E-03 -3.5405966606542E-02
195  1.9400000000000E+00  3.8396221559339E-03 -2.6404700160283E-02
196  1.9500000000000E+00  2.7169760830838E-03 -1.8640602642327E-02
197  1.9600000000000E+00  1.7756928094669E-03 -1.2176182116422E-02
198  1.9700000000000E+00  1.0283298689350E-03 -7.0604715817705E-03
199  1.9800000000000E+00  4.8117805421146E-04 -3.3139158809773E-03
200  1.9900000000000E+00  1.4093689277220E-04 -9.7550457140943E-04
201  2.0000000000000E+00  8.1570897947113E-06 -5.6874012794432E-05
202  2.0100000000000E+00 -4.7027850490354E-06  3.2842973610495E-05
203  2.0200000000000E+00  2.0818225028778E-06 -1.4469741176824E-05
204  2.03 -0.  0.
205  2.04 -0. -0.
206  2.05 -0. -0.
207  2.06  0.  0.
208  2.07  0.  0.
209  2.08  0.  0.
210  2.09  0.  0.
211  2.10  0.  0.
212  2.11  0.  0.
213  2.12  0.  0.
214  2.13  0.  0.
215  2.14  0.  0.
216  2.15  0.  0.
217  2.16  0.  0.
218  2.17  0.  0.
219  2.18  0.  0.
220  2.19  0.  0.
221  2.20  0.  0.
222  2.21  0.  0.
223  2.22  0.  0.
224  2.23  0.  0.
225  2.24  0.  0.
226  2.25  0.  0.
227  2.26  0.  0.
228  2.27  0.  0.
229  2.28  0.  0.
230  2.29  0.  0.
231  2.30  0.  0.
232  2.31  0.  0.
233  2.32  0.  0.
234  2.33  0.  0.
235  2.34  0.  0.
236  2.35  0.  0.
237  2.36  0.  0.
238  2.37  0.  0.
239  2.38  0.  0.
240  2.39  0.  0.
241  2.40  0.  0.
242  2.41  0.  0.
243  2.42  0.  0.
244  2.43  0.  0.
245  2.44  0.  0.
246  2.45  0.  0.
247  2.46  0.  0.
248  2.47  0.  0.
249  2.48  0.  0.
250  2.49  0.  0.
251  2.50  0.  0.
252  2.51  0.  0.
253  2.52  0.  0.
254  2.53  0.  0.
255  2.54  0.  0.
256  2.55  0.  0.
257  2.56  0.  0.
258  2.57  0.  0.
259  2.58  0.  0.
260  2.59  0.  0.
261  2.60  0.  0.
262  2.61  0.  0.
263  2.62  0.  0.
264  2.63  0.  0.
265  2.64  0.  0.
266  2.65  0.  0.
267  2.66  0.  0.
268  2.67  0.  0.
269  2.68  0.  0.
270  2.69  0.  0.
271  2.70  0.  0.
272  2.71  0.  0.
273  2.72  0.  0.
274  2.73  0.  0.
275  2.74  0.  0.
276  2.75  0.  0.
277  2.76  0.  0.
278  2.77  0.  0.
279  2.78  0.  0.
280  2.79  0.  0.
281  2.80  0.  0.
282  2.81  0.  0.
283  2.82  0.  0.
284  2.83  0.  0.
285  2.84  0.  0.
286  2.85  0.  0.
287  2.86  0.  0.
288  2.87  0.  0.
289  2.88  0.  0.
290  2.89  0.  0.
291  2.90  0.  0.
292  2.91  0.  0.
293  2.92  0.  0.
294  2.93  0.  0.
295  2.94  0.  0.
296  2.95  0.  0.
297  2.96  0.  0.
298  2.97  0.  0.
299  2.98  0.  0.
300  2.99  0.  0.
301  3.00  0.  0.
302  3.01  0.  0.
303  3.02  0.  0.
304  3.03  0.  0.
305  3.04  0.  0.
306  3.05  0.  0.
307  3.06  0.  0.
308  3.07  0.  0.
309  3.08  0.  0.
310  3.09  0.  0.
311  3.10  0.  0.
312  3.11  0.  0.
313  3.12  0.  0.
314  3.13  0.  0.
315  3.14  0.  0.
316  3.15  0.  0.
317  3.16  0.  0.
318  3.17  0.  0.
319  3.18  0.  0.
320  3.19  0.  0.
321  3.20  0.  0.
322  3.21  0.  0.
323  3.22  0.  0.
324  3.23  0.  0.
325  3.24  0.  0.
326  3.25  0.  0.
327  3.26  0.  0.
328  3.27  0.  0.
329  3.28  0.  0.
330  3.29  0.  0.
331  3.30  0.  0.
332  3.31  0.  0.
333  3.32  0.  0.
334  3.33  0.  0.
335  3.34  0.  0.
336  3.35  0.  0.
337  3.36  0.  0.
338  3.37  0.  0.
339  3.38  0.  0.
340  3.39  0.  0.
341  3.40  0.  0.
342  3.41  0.  0.
343  3.42  0.  0.
344  3.43  0.  0.
345  3.44  0.  0.
346  3.45  0.  0.
347  3.46  0.  0.
348  3.47  0.  0.
349  3.48  0.  0.
350  3.49  0.  0.
351  3.50  0.  0.
352  3.51  0.  0.
353  3.52  0.  0.
354  3.53  0.  0.
355  3.54  0.  0.
356  3.55  0.  0.
357  3.56  0.  0.
358  3.57  0.  0.
359  3.58  0.  0.
360  3.59  0.  0.
361  3.60  0.  0.
362  3.61  0.  0.
363  3.62  0.  0.
364  3.63  0.  0.
365  3.64  0.  0.
366  3.65  0.  0.
367  3.66  0.  0.
368  3.67  0.  0.
369  3.68  0.  0.
370  3.69  0.  0.
371  3.70  0.  0.
372  3.71  0.  0.
373  3.72  0.  0.
374  3.73  0.  0.
375  3.74  0.  0.
376  3.75  0.  0.
377  3.76  0.  0.
378  3.77  0.  0.
379  3.78  0.  0.
380  3.79  0.  0.
381  3.80  0.  0.
382  3.81  0.  0.
383  3.82  0.  0.
384  3.83  0.  0.
385  3.84  0.  0.
386  3.85  0.  0.
387  3.86  0.  0.
388  3.87  0.  0.
389  3.88  0.  0.
390  3.89  0.  0.
391  3.90  0.  0.
392  3.91  0.  0.
393  3.92  0.  0.
394  3.93  0.  0.
395  3.94  0.  0.
396  3.95  0.  0.
397  3.96  0.  0.
398  3.97  0.  0.
399  3.98  0.  0.
400  3.99  0.  0.
401  4.00  0.  0.
402  4.01  0.  0.
403  4.02  0.  0.
404  4.03  0.  0.
405  4.04  0.  0.
406  4.05  0.  0.
407  4.06  0.  0.
408  4.07  0.  0.
409  4.08  0.  0.
410  4.09  0.  0.
411  4.10  0.  0.
412  4.11  0.  0.
413  4.12  0.  0.
414  4.13  0.  0.
415  4.14  0.  0.
416  4.15  0.  0.
417  4.16  0.  0.
418  4.17  0.  0.
419  4.18  0.  0.
420  4.19  0.  0.
421  4.20  0.  0.
422  4.21  0.  0.
423  4.22  0.  0.
424  4.23  0.  0.
425  4.24  0.  0.
426  4.25  0.  0.
427  4.26  0.  0.
428  4.27  0.  0.
429  4.28  0.  0.
430  4.29  0.  0.
431  4.30  0.  0.
432  4.31  0.  0.
433  4.32  0.  0.
434  4.33  0.  0.
435  4.34  0.  0.
436  4.35  0.  0.
437  4.36  0.  0.
438  4.37  0.  0.
439  4.38  0.  0.
440  4.39  0.  0.
441  4.40  0.  0.
442  4.41  0.  0.
443  4.42  0.  0.
444  4.43  0.  0.
445  4.44  0.  0.
446  4.45  0.  0.
447  4.46  0.  0.
448  4.47  0.  0.
449  4.48  0.  0.
450  4.49  0.  0.
451  4.50  0.  0.
452  4.51  0.  0.
453  4.52  0.  0.
454  4.53  0.  0.
455  4.54  0.  0.
456  4.55  0.  0.
457  4.56  0.  0.
458  4.57  0.  0.
459  4.58  0.  0.
460  4.59  0.  0.
461  4.60  0.  0.
462  4.61  0.  0.
463  4.62  0.  0.
464  4.63  0.  0.
465  4.64  0.  0.
466  4.65  0.  0.
467  4.66  0.  0.
468  4.67  0.  0.
469  4.68  0.  0.
470  4.69  0.  0.
471  4.70  0.  0.
472  4.71  0.  0.
473  4.72  0.  0.
474  4.73  0.  0.
475  4.74  0.  0.
476  4.75  0.  0.
477  4.76  0.  0.
478  4.77  0.  0.
479  4.78  0.  0.
480  4.79  0.  0.
481  4.80  0.  0.
482  4.81  0.  0.
483  4.82  0.  0.
484  4.83  0.  0.
485  4.84  0.  0.
486  4.85  0.  0.
487  4.86  0.  0.
488  4.87  0.  0.
489  4.88  0.  0.
490  4.89  0.  0.
491  4.90  0.  0.
492  4.91  0.  0.
493  4.92  0.  0.
494  4.93  0.  0.
495  4.94  0.  0.
496  4.95  0.  0.
497  4.96  0.  0.
498  4.97  0.  0.
499  4.98  0.  0.
500  4.99  0.  0.
501  5.00  0.  0.
502  5.01  0.  0.
503  5.02  0.  0.
504  5.03  0.  0.
505  5.04  0.  0.
506  5.05  0.  0.
507  5.06  0.  0.
508  5.07  0.  0.
509  5.08  0.  0.
510  5.09  0.  0.
511  5.10  0.  0.
512  5.11  0.  0.
513  5.12  0.  0.
514  5.13  0.  0.
515  5.14  0.  0.
516  5.15  0.  0.
517  5.16  0.  0.
518  5.17  0.  0.
519  5.18  0.  0.
520  5.19  0.  0.
521  5.20  0.  0.
522  5.21  0.  0.
523  5.22  0.  0.
524  5.23  0.  0.
525  5.24  0.  0.
526  5.25  0.  0.
527  5.26  0.  0.
528  5.27  0.  0.
529  5.28  0.  0.
530  5.29  0.  0.
531  5.30  0.  0.
532  5.31  0.  0.
533  5.32  0.  0.
534  5.33  0.  0.
535  5.34  0.  0.
536  5.35  0.  0.
537  5.36  0.  0.
538  5.37  0.  0.
539  5.38  0.  0.
540  5.39  0.  0.
541  5.40  0.  0.
542  5.41  0.  0.
543  5.42  0.  0.
544  5.43  0.  0.
545  5.44  0.  0.
546  5.45  0.  0.
547  5.46  0.  0.
548  5.47  0.  0.
549  5.48  0.  0.
550  5.49  0.  0.
551  5.50  0.  0.
552  5.51  0.  0.
553  5.52  0.  0.
554  5.53  0.  0.
555  5.54  0.  0.
556  5.55  0.  0.
557  5.56  0.  0.
558  5.57  0.  0.
559  5.58  0.  0.
560  5.59  0.  0.
561  5.60  0.  0.
562  5.61  0.  0.
563  5.62  0.  0.
564  5.63  0.  0.
565  5.64  0.  0.
566  5.65  0.  0.
567  5.66  0.  0.
568  5.67  0.  0.
569  5.68  0.  0.
570  5.69  0.  0.
571  5.70  0.  0.
572  5.71  0.  0.
573  5.72  0.  0.
574  5.73  0.  0.
575  5.74  0.  0.
576  5.75  0.  0.
577  5.76  0.  0.
578  5.77  0.  0.
579  5.78  0.  0.
580  5.79  0.  0.
581  5.80  0.  0.
582  5.81  0.  0.
583  5.82  0.  0.
584  5.83  0.  0.
585  5.84  0.  0.
586  5.85  0.  0.
587  5.86  0.  0.
588  5.87  0.  0.
589  5.88  0.  0.
590  5.89  0.  0.
591  5.90  0.  0.
592  5.91  0.  0.
593  5.92  0.  0.
594  5.93  0.  0.
595  5.94  0.  0.
596  5.95  0.  0.
597  5.96  0.  0.
598  5.97  0.  0.
599  5.98  0.  0.
600  5.99  0.  0.
1                         6.5098914933325E+00  5.4521131508190E-01
1  0.0000000000000E+00  5.6530582992487E-10 -3.6891470572842E-09
2  1.0000000000000E-02  1.1843032746839E-03 -1.0493433401562E-03
3  2.0000000000000E-02  4.7327142158261E-03 -4.1853980236725E-03
4  3.0000000000000E-02  1.0631765084938E-02 -9.3723901219061E-03
5  4.0000000000000E-02  1.8859105704083E-02 -1.6551201300622E-02
6  5.0000000000000E-02  2.9383646438013E-02 -2.5640118955231E-02
7  6.0000000000000E-02  4.2165756189407E-02 -3.6535872128585E-02
8  7.0000000000000E-02  5.7157513261242E-02 -4.9114939168358E-02
9  8.0000000000000E-02  7.4303006375029E-02 -6.3235109391924E-02
10  9.0000000000000E-02  9.3538682603398E-02 -7.8737277574469E-02
11  1.0000000000000E-01  1.1479373848710E-01 -9.5447446907030E-02
12  1.1000000000000E-01  1.3799055016646E-01 -1.1317891322833E-01
13  1.2000000000000E-01  1.6304513797106E-01 -1.3173460085610E-01
14  1.3000000000000E-01  1.8986766058454E-01 -1.5090951826478E-01
15  1.4000000000000E-01  2.1836293363737E-01 -1.7049330020472E-01
16  1.5000000000000E-01  2.4843096738365E-01 -1.9027280165859E-01
17  1.6000000000000E-01  2.7996751799027E-01 -2.1003470829945E-01
18  1.7000000000000E-01  3.1286464691035E-01 -2.2956812786473E-01
19  1.8000000000000E-01  3.4701128282816E-01 -2.4866712709590E-01
20  1.9000000000000E-01  3.8229378074991E-01 -2.6713317961385E-01
21  2.0000000000000E-01  4.1859647297245E-01 -2.8477749129801E-01
22  2.1000000000000E-01  4.5580220688812E-01 -3.0142317139807E-01
23  2.2000000000000E-01  4.9379286487561E-01 -3.1690721971247E-01
24  2.3000000000000E-01  5.3244986188028E-01 -3.3108230268935E-01
25  2.4000000000000E-01  5.7165461669724E-01 -3.4381829421380E-01
26  2.5000000000000E-01  6.1128899343229E-01 -3.5500356010144E-01
27  2.6000000000000E-01  6.5123571012195E-01 -3.6454596888007E-01
28  2.7000000000000E-01  6.9137871203874E-01 -3.7237361526379E-01
29  2.8000000000000E-01  7.3160350778231E-01 -3.7843524675429E-01
30  2.9000000000000E-01  7.7179746685481E-01 -3.8270038799074E-01
31  3.0000000000000E-01  8.1185007802988E-01 -3.8515916175464E-01
32  3.1000000000000E-01  8.5165316844151E-01 -3.8582180986157E-01
33  3.2000000000000E-01  8.9110108393170E-01 -3.8471792147910E-01
34  3.3000000000000E-01  9.3009083179647E-01 -3.8189538063799E-01
35  3.4000000000000E-01  9.6852218764853E-01 -3.7741904879419E-01
36  3.5000000000000E-01  1.0062977686639E+00 -3.7136920219308E-01
37  3.6000000000000E-01  1.0433230759898E+00 -3.6383974742924E-01
38  3.7000000000000E-01  1.0795065095562E+00 -3.5493624193083E-01
39  3.8000000000000E-01  1.1147593589412E+00 -3.4477374907832E-01
40  3.9000000000000E-01  1.1489957742943E+00 -3.3347456024681E-01
41  4.0000000000000E-01  1.1821327215993E+00 -3.2116581819936E-01
42  4.1000000000000E-01  1.2140899267774E+00 -3.0797707792066E-01
43  4.2000000000000E-01  1.2447898132609E+00 -2.9403784213691E-01
44  4.3000000000000E-01  1.2741574377310E+00 -2.7947510939784E-01
45  4.4000000000000E-01  1.3021204286879E+00 -2.6441097268428E-01
46  4.5000000000000E-01  1.3286089324178E+00 -2.4896030604308E-01
47  4.6000000000000E-01  1.3535555707395E+00 -2.3322857574017E-01
48  4.7000000000000E-01  1.3768954146446E+00 -2.1730981086991E-01
49  4.8000000000000E-01  1.3985659776115E+00 -2.0128476628106E-01
50  4.9000000000000E-01  1.4185072319552E+00 -1.8521930809909E-01
51  5.0000000000000E-01  1.4366616511001E+00 -1.6916304907360E-01
52  5.1000000000000E-01  1.4529742801212E+00 -1.5314825749513E-01
53  5.2000000000000E-01  1.4673928363065E+00 -1.3718905955403E-01
54  5.3000000000000E-01  1.4798678408556E+00 -1.2128095080570E-01
55  5.4000000000000E-01  1.4903527821592E+00 -1.0540062791922E-01
56  5.5000000000000E-01  1.4988043104011E+00 -8.9506147182502E-02
57  5.6000000000000E-01  1.5051824625174E+00 -7.3537411381188E-02
58  5.7000000000000E-01  1.5094509158283E+00 -5.7416981733007E-02
59  5.8000000000000E-01  1.5115772679501E+00 -4.1051206613756E-02
60  5.9000000000000E-01  1.5115333399116E+00 -2.4331653929135E-02
61  6.0000000000000E-01  1.5092954987376E+00 -7.1368292430875E-03
62  6.1000000000000E-01  1.5048449951545E+00  1.0665842760326E-02
63  6.2000000000000E-01  1.4981683115131E+00  2.9217800157518E-02
64  6.3000000000000E-01  1.4892575145305E+00  4.8666919588086E-02
65  6.4000000000000E-01  1.4781106070364E+00  6.9164920051016E-02
66  6.5000000000000E-01  1.4647318725749E+00  9.0864631785809E-02
67  6.6000000000000E-01  1.4491322064703E+00  1.1391716982773E-01
68  6.7000000000000E-01  1.4313294268224E+00  1.3846905375452E-01
69  6.8000000000000E-01  1.4113485588591E+00  1.6465931646466E-01
70  6.9000000000000E-01  1.3892220861385E+00  1.9261664551532E-01
71  7.0000000000000E-01  1.3649901622757E+00  2.2245660058211E-01
72  7.1000000000000E-01  1.3387007771543E+00  2.5427894997314E-01
73  7.2000000000000E-01  1.3104098719823E+00  2.8816516783754E-01
74  7.3000000000000E-01  1.2801813980560E+00  3.2417613176433E-01
75  7.4000000000000E-01  1.2480873146991E+00  3.6235005789261E-01
76  7.5000000000000E-01  1.2142075225462E+00  4.0270070748122E-01
77  7.6000000000000E-01  1.1786297291251E+00  4.4521589515581E-01
78  7.7000000000000E-01  1.1414492445526E+00  4.8985632481654E-01
79  7.8000000000000E-01  1.1027687060889E+00  5.3655477451060E-01
80  7.9000000000000E-01  1.0626977312711E+00  5.8521564651808E-01
81  8.0000000000000E-01  1.0213525003627E+00  6.3571489354679E-01
82  8.1000000000000E-01  9.7885526989375E-01  6.8790032635909E-01
83  8.2000000000000E-01  9.3533382011006E-01  7.4159230245476E-01
84  8.3000000000000E-01  8.9092084017864E-01  7.9658478969510E-01
85  8.4000000000000E-01  8.4575325600345E-01  8.5264679307142E-01
86  8.5000000000000E-01  7.9997150646026E-01  9.0952412728946E-01
87  8.6000000000000E-01  7.5371877475399E-01  9.6694151255406E-01
88  8.7000000000000E-01  7.0714018241625E-01  1.0246049659874E+00
89  8.8000000000000E-01  6.6038195417843E-01  1.0822044565878E+00
90  8.9000000000000E-01  6.1359056256215E-01  1.1394167876156E+00
91  9.0000000000000E-01  5.6691186151146E-01  1.1959086668568E+00
92  9.1000000000000E-01  5.2049021873526E-01  1.2513399224248E+00
93  9.2000000000000E-01  4.7446765662615E-01  1.3053668196857E+00
94  9.3000000000000E-01  4.2898301166311E-01  1.3576454335597E+00
95  9.4000000000000E-01  3.8417112208545E-01  1.4078350299229E+00
96  9.5000000000000E-01  3.4016205333927E-01  1.4556014101001E+00
97  9.6000000000000E-01  2.9708037034595E-01  1.5006201735369E+00
98  9.7000000000000E-01  2.5504446502509E-01  1.5425798556417E+00
99  9.8000000000000E-01  2.1416594672755E-01  1.5811849004855E+00
100  9.9000000000000E-01  1.7454910230506E-01  1.6161584314977E+00
101  1.0000000000000E+00  1.3629043147118E-01  1.6472447874531E+00
102  1.0100000000000E+00  9.9478261907967E-02  1.6742117958407E+00
103  1.0200000000000E+00  6.4192447259161E-02  1.6968527610595E+00
104  1.0300000000000E+00  3.0504149744272E-02  1.7149881507099E+00
105  1.0400000000000E+00 -1.5242923531434E-03  1.7284669694319E+00
106  1.0500000000000E+00 -3.1839413597994E-02  1.7371678161749E+00
107  1.0600000000000E+00 -6.0396589542581E-02  1.7409996273190E+00
108  1.0700000000000E+00 -8.7159928465445E-02  1.7399021146068E+00
109  1.0800000000000E+00 -1.1210209259226E-01  1.7338459131917E+00
110  1.0900000000000E+00 -1.3520405612617E-01  1.7228324611596E+00
111  1.1000000000000E+00 -1.5645480875855E-01  1.7068936374484E+00
112  1.1100000000000E+00 -1.7585101454080E-01  1.6860911900202E+00
113  1.1200000000000E+00 -1.9339663704135E-01  1.6605159902848E+00
114  1.1300000000000E+00 -2.0910254254814E-01  1.6302871529386E+00
115  1.1400000000000E+00 -2.2298609367706E-01  1.5955510624363E+00
116  1.1500000000000E+00 -2.3507074606907E-01  1.5564803480630E+00
117  1.1600000000000E+00 -2.4538566087002E-01  1.5132728488745E+00
118  1.1700000000000E+00 -2.5396534535308E-01  1.4661506074659E+00
119  1.1800000000000E+00 -2.6084933332332E-01  1.4153589274363E+00
120  1.1900000000000E+00 -2.6608191580937E-01  1.3611655234133E+00
121  1.2000000000000E+00 -2.6971193095849E-01  1.3038597844195E+00
122  1.2100000000000E+00 -2.7179261996974E-01  1.2437521610294E+00
123  1.2200000000000E+00 -2.7238155331365E-01  1.1811736741367E+00
124  1.2300000000000E+00 -2.7154062831627E-01  1.1164755278854E+00
125  1.2400000000000E+00 -2.6933613545875E-01  1.0500287915400E+00
126  1.2500000000000E+00 -2.6583888637032E-01  9.8222409439727E-01
127  1.2600000000000E+00 -2.6112439145854E-01  9.1347125420550E-01
128  1.2700000000000E+00 -2.5527306942869E-01  8.4419873300498E-01
129  1.2800000000000E+00 -2.4837046447700E-01  7.7485278429087E-01
130  1.2900000000000E+00 -2.4050743973445E-01  7.0589612211785E-01
131  1.3000000000000E+00 -2.3178030755357E-01  6.3780590605841E-01
132  1.3100000000000E+00 -2.2229084834965E-01  5.7107079525878E-01
133  1.3200000000000E+00 -2.1214615998185E-01  5.0618678046463E-01
134  1.3300000000000E+00 -2.0145826900977E-01  4.4365145446629E-01