Er    ONCVPSP-4.0.1  r_core=   2.00187   1.60440   1.90833   1.40655
68.0000     22.0000      241206    zatom,zion,pspd
8      11   3     4   600     0    pspcod,pspxc,lmax,lloc,mmax,r2well
5.99000000  4.00000000  0.00000000    rchrg fchrg qchrg
2     2     2     2     0    nproj
1     1           extension_switch
0                         7.1564720266898E+00  9.7732642803506E-01
1  0.0000000000000E+00  7.6676887061922E-11 -2.1788603560280E-10
2  1.0000000000000E-02  4.3470615337134E-02 -3.5985913817604E-03
3  2.0000000000000E-02  8.6912966331090E-02 -7.2245292723989E-03
4  3.0000000000000E-02  1.3029862965731E-01 -1.0904638581513E-02
5  4.0000000000000E-02  1.7359886609011E-01 -1.4664706664578E-02
6  5.0000000000000E-02  2.1678446768671E-01 -1.8528978601268E-02
7  6.0000000000000E-02  2.5982561107794E-01 -2.2519669184682E-02
8  7.0000000000000E-02  3.0269171881076E-01 -2.6656496934071E-02
9  8.0000000000000E-02  3.4535133061077E-01 -3.0956245225757E-02
10  9.0000000000000E-02  3.8777198633836E-01 -3.5432355368271E-02
11  1.0000000000000E-01  4.2992012230054E-01 -4.0094556130827E-02
12  1.1000000000000E-01  4.7176098245246E-01 -4.4948533871861E-02
13  1.2000000000000E-01  5.1325854587983E-01 -4.9995647009943E-02
14  1.3000000000000E-01  5.5437547179674E-01 -5.5232688136499E-02
15  1.4000000000000E-01  5.9507306312419E-01 -6.0651696592675E-02
16  1.5000000000000E-01  6.3531124953468E-01 -6.6239823825646E-02
17  1.6000000000000E-01  6.7504859065866E-01 -7.1979253307445E-02
18  1.7000000000000E-01  7.1424229995152E-01 -7.7847176247117E-02
19  1.8000000000000E-01  7.5284828951686E-01 -8.3815823759442E-02
20  1.9000000000000E-01  7.9082123597437E-01 -8.9852555576826E-02
21  2.0000000000000E-01  8.2811466725138E-01 -9.5920004809513E-02
22  2.1000000000000E-01  8.6468106996731E-01 -1.0197627768009E-01
23  2.2000000000000E-01  9.0047201687175E-01 -1.0797520658561E-01
24  2.3000000000000E-01  9.3543831359256E-01 -1.1386665428109E-01
25  2.4000000000000E-01  9.6953016375048E-01 -1.1959686643685E-01
26  2.5000000000000E-01  1.0026973513049E+00 -1.2510886930471E-01
27  2.6000000000000E-01  1.0348894388125E+00 -1.3034290873932E-01
28  2.7000000000000E-01  1.0660559801069E+00 -1.3523692636686E-01
29  2.8000000000000E-01  1.0961467457510E+00 -1.3972706827777E-01
30  2.9000000000000E-01  1.1251119594632E+00 -1.4374822124829E-01
31  3.0000000000000E-01  1.1529025435932E+00 -1.4723457117112E-01
32  3.1000000000000E-01  1.1794703716076E+00 -1.5012017810235E-01
33  3.2000000000000E-01  1.2047685254513E+00 -1.5233956211372E-01
34  3.3000000000000E-01  1.2287515555737E+00 -1.5382829397758E-01
35  3.4000000000000E-01  1.2513757413561E+00 -1.5452358461099E-01
36  3.5000000000000E-01  1.2725993496381E+00 -1.5436486716547E-01
37  3.6000000000000E-01  1.2923828890310E+00 -1.5329436567133E-01
38  3.7000000000000E-01  1.3106893577111E+00 -1.5125764423160E-01
39  3.8000000000000E-01  1.3274844824200E+00 -1.4820413090972E-01
40  3.9000000000000E-01  1.3427369464461E+00 -1.4408761066640E-01
41  4.0000000000000E-01  1.3564186044407E+00 -1.3886668197414E-01
42  4.1000000000000E-01  1.3685046820121E+00 -1.3250517206946E-01
43  4.2000000000000E-01  1.3789739581588E+00 -1.2497250619226E-01
44  4.3000000000000E-01  1.3878089287376E+00 -1.1624402660319E-01
45  4.4000000000000E-01  1.3949959493150E+00 -1.0630125766270E-01
46  4.5000000000000E-01  1.4005253559203E+00 -9.5132113792579E-02
47  4.6000000000000E-01  1.4043915624078E+00 -8.2731047718785E-02
48  4.7000000000000E-01  1.4065931333334E+00 -6.9099137008369E-02
49  4.8000000000000E-01  1.4071328314650E+00 -5.4244107555299E-02
50  4.9000000000000E-01  1.4060176392703E+00 -3.8180293336510E-02
51  5.0000000000000E-01  1.4032587539583E+00 -2.0928532441946E-02
52  5.1000000000000E-01  1.3988715558869E+00 -2.5160000746775E-03
53  5.2000000000000E-01  1.3928755503955E+00  1.7024020087700E-02
54  5.3000000000000E-01  1.3852942833624E+00  3.7652424088995E-02
55  5.4000000000000E-01  1.3761552310355E+00  5.9324632687526E-02
56  5.5000000000000E-01  1.3654896649207E+00  8.1990989727306E-02
57  5.6000000000000E-01  1.3533324927543E+00  1.0559720983550E-01
58  5.7000000000000E-01  1.3397220768098E+00  1.3008487079565E-01
59  5.8000000000000E-01  1.3247000310114E+00  1.5539194538785E-01
60  5.9000000000000E-01  1.3083109985309E+00  1.8145336697617E-01
61  6.0000000000000E-01  1.2906024117402E+00  2.0820162266649E-01
62  6.1000000000000E-01  1.2716242365640E+00  2.3556736745992E-01
63  6.2000000000000E-01  1.2514287034394E+00  2.6348005249367E-01
64  6.3000000000000E-01  1.2300700272249E+00  2.9186856019755E-01
65  6.4000000000000E-01  1.2076041185205E+00  3.2066183900411E-01
66  6.5000000000000E-01  1.1840882889525E+00  3.4978953013681E-01
67  6.6000000000000E-01  1.1595809530496E+00  3.7918257896706E-01
68  6.7000000000000E-01  1.1341413293811E+00  4.0877382347844E-01
69  6.8000000000000E-01  1.1078291436507E+00  4.3849855250662E-01
70  6.9000000000000E-01  1.0807043364294E+00  4.6829502663643E-01
71  7.0000000000000E-01  1.0528267781865E+00  4.9810495493237E-01
72  7.1000000000000E-01  1.0242559942135E+00  5.2787392105470E-01
73  7.2000000000000E-01  9.9505090195699E-01  5.5755175276708E-01
74  7.3000000000000E-01  9.6526956316740E-01  5.8709282937114E-01
75  7.4000000000000E-01  9.3496895313751E-01  6.1645632220383E-01
76  7.5000000000000E-01  9.0420474914925E-01  6.4560636400056E-01
77  7.6000000000000E-01  8.7303114006999E-01  6.7451214365562E-01
78  7.7000000000000E-01  8.4150065884027E-01  7.0314792369507E-01
79  7.8000000000000E-01  8.0966403937810E-01  7.3149297860901E-01
80  7.9000000000000E-01  7.7757009918992E-01  7.5953145306419E-01
81  8.0000000000000E-01  7.4526564872820E-01  7.8725213992464E-01
82  8.1000000000000E-01  7.1279542827237E-01  8.1464817894113E-01
83  8.2000000000000E-01  6.8020207283485E-01  8.4171667792063E-01
84  8.3000000000000E-01  6.4752610531056E-01  8.6845825914628E-01
85  8.4000000000000E-01  6.1480595779733E-01  8.9487653477791E-01
86  8.5000000000000E-01  5.8207802071996E-01  9.2097751591481E-01
87  8.6000000000000E-01  5.4937671909293E-01  9.4676896093691E-01
88  8.7000000000000E-01  5.1673461495950E-01  9.7225966964958E-01
89  8.8000000000000E-01  4.8418253474930E-01  9.9745873063349E-01
90  8.9000000000000E-01  4.5174972000560E-01  1.0223747300344E+00
91  9.0000000000000E-01  4.1946399964836E-01  1.0470149308130E+00
92  9.1000000000000E-01  3.8735198166258E-01  1.0713844322029E+00
93  9.2000000000000E-01  3.5543926183528E-01  1.0954853197900E+00
94  9.3000000000000E-01  3.2375064690978E-01  1.1193158172176E+00
95  9.4000000000000E-01  2.9231038928551E-01  1.1428694510452E+00
96  9.5000000000000E-01  2.6114243016646E-01  1.1661342407159E+00
97  9.6000000000000E-01  2.3027064785336E-01  1.1890919259410E+00
98  9.7000000000000E-01  1.9971910768540E-01  1.2117172440582E+00
99  9.8000000000000E-01  1.6951230996850E-01  1.2339772700776E+00
100  9.9000000000000E-01  1.3967543208047E-01  1.2558308321762E+00
101  1.0000000000000E+00  1.1023456082015E-01  1.2772280153438E+00
102  1.0100000000000E+00  8.1216910970532E-02  1.2981097657078E+00
103  1.0200000000000E+00  5.2651025976395E-02  1.3184076077681E+00
104  1.0300000000000E+00  2.4566956596924E-02  1.3380434863518E+00
105  1.0400000000000E+00 -3.0035866127775E-03  1.3569297445392E+00
106  1.0500000000000E+00 -3.0027111109600E-02  1.3749692481133E+00
107  1.0600000000000E+00 -5.6468254511004E-02  1.3920556662376E+00
108  1.0700000000000E+00 -8.2289735026463E-02  1.4080739170531E+00
109  1.0800000000000E+00 -1.0745234395840E-01  1.4229007857049E+00
110  1.0900000000000E+00 -1.3191498385242E-01  1.4364057209401E+00
111  1.1000000000000E+00 -1.5563475561294E-01  1.4484518148487E+00
112  1.1100000000000E+00 -1.7856709757480E-01  1.4588969685372E+00
113  1.1200000000000E+00 -2.0066597912469E-01  1.4675952445002E+00
114  1.1300000000000E+00 -2.2188415099542E-01  1.4743984041827E+00
115  1.1400000000000E+00 -2.4217345379597E-01  1.4791576266624E+00
116  1.1500000000000E+00 -2.6148518569067E-01  1.4817254015279E+00
117  1.1600000000000E+00 -2.7977052938115E-01  1.4819575858198E+00
118  1.1700000000000E+00 -2.9698103767588E-01  1.4797156113541E+00
119  1.1800000000000E+00 -3.1306917593011E-01  1.4748688247746E+00
120  1.1900000000000E+00 -3.2798891850266E-01  1.4672969382955E+00
121  1.2000000000000E+00 -3.4169639508382E-01  1.4568925642252E+00
122  1.2100000000000E+00 -3.5415058128672E-01  1.4435638009705E+00
123  1.2200000000000E+00 -3.6531402625951E-01  1.4272368322995E+00
124  1.2300000000000E+00 -3.7515360822594E-01  1.4078584950637E+00
125  1.2400000000000E+00 -3.8364130681506E-01  1.3853987634020E+00
126  1.2500000000000E+00 -3.9075497874882E-01  1.3598530895323E+00
127  1.2600000000000E+00 -3.9647912091185E-01  1.3312445325426E+00
128  1.2700000000000E+00 -4.0080560203006E-01  1.2996255971514E+00
129  1.2800000000000E+00 -4.0373434107440E-01  1.2650796939990E+00
130  1.2900000000000E+00 -4.0527390709710E-01  1.2277221217347E+00
131  1.3000000000000E+00 -4.0544201147973E-01  1.1877004589009E+00
132  1.3100000000000E+00 -4.0426585946542E-01  1.1451942401976E+00
133  1.3200000000000E+00 -4.0178232338371E-01  1.1004137772220E+00
134  1.3300000000000E+00 -3.9803789511457E-01  1.0535979680765E+00
135  1.3400000000000E+00 -3.9308837005230E-01  1.0050109232575E+00
136  1.3500000000000E+00 -3.8699820908544E-01  9.5493721685366E-01
137  1.3600000000000E+00 -3.7983951890669E-01  9.0367555231085E-01
138  1.3700000000000E+00 -3.7169058427201E-01  8.5153061075120E-01
139  1.3800000000000E+00 -3.6263387858563E-01  7.9880282687745E-01
140  1.3900000000000E+00 -3.5275347101594E-01  7.4577581076589E-01
141  1.4000000000000E+00 -3.4213175622602E-01  6.9270120016405E-01
142  1.4100000000000E+00 -3.3084529671818E-01  6.3977996812797E-01
143  1.4200000000000E+00 -3.1896244374408E-01  5.8715555261301E-01
144  1.4300000000000E+00 -3.0654893247499E-01  5.3495155802745E-01
145  1.4400000000000E+00 -2.9367174736015E-01  4.8329582584931E-01
146  1.4500000000000E+00 -2.8039878408827E-01  4.3231933658906E-01
147  1.4600000000000E+00 -2.6679856482381E-01  3.8215548815305E-01
148  1.4700000000000E+00 -2.5293990161787E-01  3.3293909937337E-01
149  1.4800000000000E+00 -2.3889154889012E-01  2.8480538025669E-01
150  1.4900000000000E+00 -2.2472184740413E-01  2.3788887424273E-01
151  1.5000000000000E+00 -2.1049836222594E-01  1.9232237892018E-01
152  1.5100000000000E+00 -1.9628751775799E-01  1.4823585492824E-01
153  1.5200000000000E+00 -1.8215423306437E-01  1.0575533325847E-01
154  1.5300000000000E+00 -1.6816156072590E-01  6.5001831198827E-02
155  1.5400000000000E+00 -1.5437033252244E-01  2.6090287424558E-02
156  1.5500000000000E+00 -1.4083881511467E-01 -1.0871473821274E-02
157  1.5600000000000E+00 -1.2762237917029E-01 -4.5783738164282E-02
158  1.5700000000000E+00 -1.1477318497555E-01 -7.8555846620945E-02
159  1.5800000000000E+00 -1.0233988677709E-01 -1.0910708522031E-01
160  1.5900000000000E+00 -9.0367360935204E-02 -1.3736749931261E-01
161  1.6000000000000E+00 -7.8896457813226E-02 -1.6327863690578E-01
162  1.6100000000000E+00 -6.7963782035368E-02 -1.8679420316337E-01
163  1.6200000000000E+00 -5.7601502471747E-02 -2.0788062309257E-01
164  1.6300000000000E+00 -4.7837194267445E-02 -2.2651750462521E-01
165  1.6400000000000E+00 -3.8693714650171E-02 -2.4269799659477E-01
166  1.6500000000000E+00 -3.0189114019988E-02 -2.5642903675861E-01
167  1.6600000000000E+00 -2.2336583510716E-02 -2.6773148601784E-01
168  1.6700000000000E+00 -1.5144439862854E-02 -2.7664014612660E-01
169  1.6800000000000E+00 -8.6161481496992E-03 -2.8320365908761E-01
170  1.6900000000000E+00 -2.7503825218375E-03 -2.8748428766376E-01
171  1.7000000000000E+00  2.4588751910529E-03 -2.8955757744923E-01
172  1.7100000000000E+00  7.0221995523643E-03 -2.8951190214120E-01
173  1.7200000000000E+00  1.0954549126591E-02 -2.8744789468790E-01
174  1.7300000000000E+00  1.4275058832697E-02 -2.8347776810073E-01
175  1.7400000000000E+00  1.7006798601076E-02 -2.7772453084098E-01
176  1.7500000000000E+00  1.9176500192739E-02 -2.7032110262947E-01
177  1.7600000000000E+00  2.0814254353786E-02 -2.6140933753616E-01
178  1.7700000000000E+00  2.1953180778825E-02 -2.5113896217504E-01
179  1.7800000000000E+00  2.2629073605162E-02 -2.3966643760480E-01
180  1.7900000000000E+00  2.2880025410795E-02 -2.2715375434398E-01
181  1.8000000000000E+00  2.2746032901193E-02 -2.1376717058352E-01
182  1.8100000000000E+00  2.2268587714187E-02 -1.9967590449344E-01
183  1.8200000000000E+00  2.1490255660737E-02 -1.8505079099805E-01
184  1.8300000000000E+00  2.0454248327009E-02 -1.7006291563543E-01
185  1.8400000000000E+00  1.9203991707867E-02 -1.5488224090707E-01
186  1.8500000000000E+00  1.7782691370890E-02 -1.3967622074923E-01
187  1.8600000000000E+00  1.6232905800411E-02 -1.2460844511999E-01
188  1.8700000000000E+00  1.4596125561961E-02 -1.0983730160577E-01
189  1.8800000000000E+00  1.2912349528135E-02 -9.5514635743429E-02
190  1.8900000000000E+00  1.1219732132528E-02 -8.1784613152477E-02
191  1.9000000000000E+00  9.5541362571013E-03 -6.8782341299995E-02
192  1.9100000000000E+00  7.9477677781802E-03 -5.6629911614829E-02
193  1.9200000000000E+00  6.4294104311894E-03 -4.5436871227614E-02
194  1.9300000000000E+00  5.0271743340011E-03 -3.5307781697030E-02
195  1.9400000000000E+00  3.7654883425922E-03 -2.6333879391709E-02
196  1.9500000000000E+00  2.6648989375204E-03 -1.8592408194205E-02
197  1.9600000000000E+00  1.7418611084164E-03 -1.2145952377918E-02
198  1.9700000000000E+00  1.0088301235381E-03 -7.0437156183985E-03
199  1.9800000000000E+00  4.7208564227234E-04 -3.3064353473598E-03
200  1.9900000000000E+00  1.3828024099024E-04 -9.7342569361990E-04
201  2.0000000000000E+00  8.0043883432420E-06 -5.6763820211557E-05
202  2.0100000000000E+00 -4.6140838930959E-06  3.2778510789197E-05
203  2.0200000000000E+00  2.0425638104098E-06 -1.4440142790752E-05
204  2.03 -0.  0.
205  2.04 -0. -0.
206  2.05 -0. -0.
207  2.06  0.  0.
208  2.07  0.  0.
209  2.08  0.  0.
210  2.09  0.  0.
211  2.10  0.  0.
212  2.11  0.  0.
213  2.12  0.  0.
214  2.13  0.  0.
215  2.14  0.  0.
216  2.15  0.  0.
217  2.16  0.  0.
218  2.17  0.  0.
219  2.18  0.  0.
220  2.19  0.  0.
221  2.20  0.  0.
222  2.21  0.  0.
223  2.22  0.  0.
224  2.23  0.  0.
225  2.24  0.  0.
226  2.25  0.  0.
227  2.26  0.  0.
228  2.27  0.  0.
229  2.28  0.  0.
230  2.29  0.  0.
231  2.30  0.  0.
232  2.31  0.  0.
233  2.32  0.  0.
234  2.33  0.  0.
235  2.34  0.  0.
236  2.35  0.  0.
237  2.36  0.  0.
238  2.37  0.  0.
239  2.38  0.  0.
240  2.39  0.  0.
241  2.40  0.  0.
242  2.41  0.  0.
243  2.42  0.  0.
244  2.43  0.  0.
245  2.44  0.  0.
246  2.45  0.  0.
247  2.46  0.  0.
248  2.47  0.  0.
249  2.48  0.  0.
250  2.49  0.  0.
251  2.50  0.  0.
252  2.51  0.  0.
253  2.52  0.  0.
254  2.53  0.  0.
255  2.54  0.  0.
256  2.55  0.  0.
257  2.56  0.  0.
258  2.57  0.  0.
259  2.58  0.  0.
260  2.59  0.  0.
261  2.60  0.  0.
262  2.61  0.  0.
263  2.62  0.  0.
264  2.63  0.  0.
265  2.64  0.  0.
266  2.65  0.  0.
267  2.66  0.  0.
268  2.67  0.  0.
269  2.68  0.  0.
270  2.69  0.  0.
271  2.70  0.  0.
272  2.71  0.  0.
273  2.72  0.  0.
274  2.73  0.  0.
275  2.74  0.  0.
276  2.75  0.  0.
277  2.76  0.  0.
278  2.77  0.  0.
279  2.78  0.  0.
280  2.79  0.  0.
281  2.80  0.  0.
282  2.81  0.  0.
283  2.82  0.  0.
284  2.83  0.  0.
285  2.84  0.  0.
286  2.85  0.  0.
287  2.86  0.  0.
288  2.87  0.  0.
289  2.88  0.  0.
290  2.89  0.  0.
291  2.90  0.  0.
292  2.91  0.  0.
293  2.92  0.  0.
294  2.93  0.  0.
295  2.94  0.  0.
296  2.95  0.  0.
297  2.96  0.  0.
298  2.97  0.  0.
299  2.98  0.  0.
300  2.99  0.  0.
301  3.00  0.  0.
302  3.01  0.  0.
303  3.02  0.  0.
304  3.03  0.  0.
305  3.04  0.  0.
306  3.05  0.  0.
307  3.06  0.  0.
308  3.07  0.  0.
309  3.08  0.  0.
310  3.09  0.  0.
311  3.10  0.  0.
312  3.11  0.  0.
313  3.12  0.  0.
314  3.13  0.  0.
315  3.14  0.  0.
316  3.15  0.  0.
317  3.16  0.  0.
318  3.17  0.  0.
319  3.18  0.  0.
320  3.19  0.  0.
321  3.20  0.  0.
322  3.21  0.  0.
323  3.22  0.  0.
324  3.23  0.  0.
325  3.24  0.  0.
326  3.25  0.  0.
327  3.26  0.  0.
328  3.27  0.  0.
329  3.28  0.  0.
330  3.29  0.  0.
331  3.30  0.  0.
332  3.31  0.  0.
333  3.32  0.  0.
334  3.33  0.  0.
335  3.34  0.  0.
336  3.35  0.  0.
337  3.36  0.  0.
338  3.37  0.  0.
339  3.38  0.  0.
340  3.39  0.  0.
341  3.40  0.  0.
342  3.41  0.  0.
343  3.42  0.  0.
344  3.43  0.  0.
345  3.44  0.  0.
346  3.45  0.  0.
347  3.46  0.  0.
348  3.47  0.  0.
349  3.48  0.  0.
350  3.49  0.  0.
351  3.50  0.  0.
352  3.51  0.  0.
353  3.52  0.  0.
354  3.53  0.  0.
355  3.54  0.  0.
356  3.55  0.  0.
357  3.56  0.  0.
358  3.57  0.  0.
359  3.58  0.  0.
360  3.59  0.  0.
361  3.60  0.  0.
362  3.61  0.  0.
363  3.62  0.  0.
364  3.63  0.  0.
365  3.64  0.  0.
366  3.65  0.  0.
367  3.66  0.  0.
368  3.67  0.  0.
369  3.68  0.  0.
370  3.69  0.  0.
371  3.70  0.  0.
372  3.71  0.  0.
373  3.72  0.  0.
374  3.73  0.  0.
375  3.74  0.  0.
376  3.75  0.  0.
377  3.76  0.  0.
378  3.77  0.  0.
379  3.78  0.  0.
380  3.79  0.  0.
381  3.80  0.  0.
382  3.81  0.  0.
383  3.82  0.  0.
384  3.83  0.  0.
385  3.84  0.  0.
386  3.85  0.  0.
387  3.86  0.  0.
388  3.87  0.  0.
389  3.88  0.  0.
390  3.89  0.  0.
391  3.90  0.  0.
392  3.91  0.  0.
393  3.92  0.  0.
394  3.93  0.  0.
395  3.94  0.  0.
396  3.95  0.  0.
397  3.96  0.  0.
398  3.97  0.  0.
399  3.98  0.  0.
400  3.99  0.  0.
401  4.00  0.  0.
402  4.01  0.  0.
403  4.02  0.  0.
404  4.03  0.  0.
405  4.04  0.  0.
406  4.05  0.  0.
407  4.06  0.  0.
408  4.07  0.  0.
409  4.08  0.  0.
410  4.09  0.  0.
411  4.10  0.  0.
412  4.11  0.  0.
413  4.12  0.  0.
414  4.13  0.  0.
415  4.14  0.  0.
416  4.15  0.  0.
417  4.16  0.  0.
418  4.17  0.  0.
419  4.18  0.  0.
420  4.19  0.  0.
421  4.20  0.  0.
422  4.21  0.  0.
423  4.22  0.  0.
424  4.23  0.  0.
425  4.24  0.  0.
426  4.25  0.  0.
427  4.26  0.  0.
428  4.27  0.  0.
429  4.28  0.  0.
430  4.29  0.  0.
431  4.30  0.  0.
432  4.31  0.  0.
433  4.32  0.  0.
434  4.33  0.  0.
435  4.34  0.  0.
436  4.35  0.  0.
437  4.36  0.  0.
438  4.37  0.  0.
439  4.38  0.  0.
440  4.39  0.  0.
441  4.40  0.  0.
442  4.41  0.  0.
443  4.42  0.  0.
444  4.43  0.  0.
445  4.44  0.  0.
446  4.45  0.  0.
447  4.46  0.  0.
448  4.47  0.  0.
449  4.48  0.  0.
450  4.49  0.  0.
451  4.50  0.  0.
452  4.51  0.  0.
453  4.52  0.  0.
454  4.53  0.  0.
455  4.54  0.  0.
456  4.55  0.  0.
457  4.56  0.  0.
458  4.57  0.  0.
459  4.58  0.  0.
460  4.59  0.  0.
461  4.60  0.  0.
462  4.61  0.  0.
463  4.62  0.  0.
464  4.63  0.  0.
465  4.64  0.  0.
466  4.65  0.  0.
467  4.66  0.  0.
468  4.67  0.  0.
469  4.68  0.  0.
470  4.69  0.  0.
471  4.70  0.  0.
472  4.71  0.  0.
473  4.72  0.  0.
474  4.73  0.  0.
475  4.74  0.  0.
476  4.75  0.  0.
477  4.76  0.  0.
478  4.77  0.  0.
479  4.78  0.  0.
480  4.79  0.  0.
481  4.80  0.  0.
482  4.81  0.  0.
483  4.82  0.  0.
484  4.83  0.  0.
485  4.84  0.  0.
486  4.85  0.  0.
487  4.86  0.  0.
488  4.87  0.  0.
489  4.88  0.  0.
490  4.89  0.  0.
491  4.90  0.  0.
492  4.91  0.  0.
493  4.92  0.  0.
494  4.93  0.  0.
495  4.94  0.  0.
496  4.95  0.  0.
497  4.96  0.  0.
498  4.97  0.  0.
499  4.98  0.  0.
500  4.99  0.  0.
501  5.00  0.  0.
502  5.01  0.  0.
503  5.02  0.  0.
504  5.03  0.  0.
505  5.04  0.  0.
506  5.05  0.  0.
507  5.06  0.  0.
508  5.07  0.  0.
509  5.08  0.  0.
510  5.09  0.  0.
511  5.10  0.  0.
512  5.11  0.  0.
513  5.12  0.  0.
514  5.13  0.  0.
515  5.14  0.  0.
516  5.15  0.  0.
517  5.16  0.  0.
518  5.17  0.  0.
519  5.18  0.  0.
520  5.19  0.  0.
521  5.20  0.  0.
522  5.21  0.  0.
523  5.22  0.  0.
524  5.23  0.  0.
525  5.24  0.  0.
526  5.25  0.  0.
527  5.26  0.  0.
528  5.27  0.  0.
529  5.28  0.  0.
530  5.29  0.  0.
531  5.30  0.  0.
532  5.31  0.  0.
533  5.32  0.  0.
534  5.33  0.  0.
535  5.34  0.  0.
536  5.35  0.  0.
537  5.36  0.  0.
538  5.37  0.  0.
539  5.38  0.  0.
540  5.39  0.  0.
541  5.40  0.  0.
542  5.41  0.  0.
543  5.42  0.  0.
544  5.43  0.  0.
545  5.44  0.  0.
546  5.45  0.  0.
547  5.46  0.  0.
548  5.47  0.  0.
549  5.48  0.  0.
550  5.49  0.  0.
551  5.50  0.  0.
552  5.51  0.  0.
553  5.52  0.  0.
554  5.53  0.  0.
555  5.54  0.  0.
556  5.55  0.  0.
557  5.56  0.  0.
558  5.57  0.  0.
559  5.58  0.  0.
560  5.59  0.  0.
561  5.60  0.  0.
562  5.61  0.  0.
563  5.62  0.  0.
564  5.63  0.  0.
565  5.64  0.  0.
566  5.65  0.  0.
567  5.66  0.  0.
568  5.67  0.  0.
569  5.68  0.  0.
570  5.69  0.  0.
571  5.70  0.  0.
572  5.71  0.  0.
573  5.72  0.  0.
574  5.73  0.  0.
575  5.74  0.  0.
576  5.75  0.  0.
577  5.76  0.  0.
578  5.77  0.  0.
579  5.78  0.  0.
580  5.79  0.  0.
581  5.80  0.  0.
582  5.81  0.  0.
583  5.82  0.  0.
584  5.83  0.  0.
585  5.84  0.  0.
586  5.85  0.  0.
587  5.86  0.  0.
588  5.87  0.  0.
589  5.88  0.  0.
590  5.89  0.  0.
591  5.90  0.  0.
592  5.91  0.  0.
593  5.92  0.  0.
594  5.93  0.  0.
595  5.94  0.  0.
596  5.95  0.  0.
597  5.96  0.  0.
598  5.97  0.  0.
599  5.98  0.  0.
600  5.99  0.  0.
1                         6.4121672636124E+00  5.2026457917942E-01
1  0.0000000000000E+00  9.6907414037783E-10 -5.4629102214099E-09
2  1.0000000000000E-02  1.2045959671515E-03 -1.1709947728636E-03
3  2.0000000000000E-02  4.8133135917420E-03 -4.6693061809088E-03
4  3.0000000000000E-02  1.0810983046548E-02 -1.0451121656440E-02
5  4.0000000000000E-02  1.9172457412484E-02 -1.8444104366731E-02
6  5.0000000000000E-02  2.9862814945938E-02 -2.8548408581994E-02
7  6.0000000000000E-02  4.2837638439488E-02 -4.0638079754277E-02
8  7.0000000000000E-02  5.8043367933497E-02 -5.4562818260942E-02
9  8.0000000000000E-02  7.5417722067000E-02 -7.0150080303514E-02
10  9.0000000000000E-02  9.4890182460318E-02 -8.7207484391519E-02
11  1.0000000000000E-01  1.1638253471248E-01 -1.0552548725715E-01
12  1.1000000000000E-01  1.3980945888693E-01 -1.2488028901218E-01
13  1.2000000000000E-01  1.6507916175918E-01 -1.4503692393147E-01
14  1.3000000000000E-01  1.9209404262027E-01 -1.6575249048345E-01
15  1.4000000000000E-01  2.2075138407636E-01 -1.8677947216644E-01
16  1.5000000000000E-01  2.5094405906375E-01 -2.0786909938486E-01
17  1.6000000000000E-01  2.8256124521305E-01 -2.2877470202925E-01
18  1.7000000000000E-01  3.1548913774637E-01 -2.4925500262059E-01
19  1.8000000000000E-01  3.4961165227810E-01 -2.6907730083836E-01
20  1.9000000000000E-01  3.8481110920771E-01 -2.8802050195938E-01
21  2.0000000000000E-01  4.2096889183847E-01 -3.0587794416757E-01
22  2.1000000000000E-01  4.5796607092068E-01 -3.2245998281361E-01
23  2.2000000000000E-01  4.9568398899319E-01 -3.3759629346545E-01
24  2.3000000000000E-01  5.3400479867179E-01 -3.5113785993527E-01
25  2.4000000000000E-01  5.7281194989414E-01 -3.6295861833405E-01
26  2.5000000000000E-01  6.1199062206533E-01 -3.7295673351502E-01
27  2.6000000000000E-01  6.5142809804011E-01 -3.8105548994318E-01
28  2.7000000000000E-01  6.9101407791093E-01 -3.8720378498358E-01
29  2.8000000000000E-01  7.3064093162945E-01 -3.9137621874507E-01
30  2.9000000000000E-01  7.7020389055463E-01 -3.9357278085573E-01
31  3.0000000000000E-01  8.0960117907605E-01 -3.9381814078551E-01
32  3.1000000000000E-01  8.4873408849008E-01 -3.9216055447603E-01
33  3.2000000000000E-01  8.8750699629054E-01 -3.8867040599110E-01
34  3.3000000000000E-01  9.2582733495986E-01 -3.8343840857522E-01
35  3.4000000000000E-01  9.6360551519527E-01 -3.7657349481068E-01
36  3.5000000000000E-01  1.0007548092633E+00 -3.6820043041666E-01
37  3.6000000000000E-01  1.0371912008325E+00 -3.5845719055988E-01
38  3.7000000000000E-01  1.0728332081767E+00 -3.4749214127756E-01
39  3.8000000000000E-01  1.1076016880616E+00 -3.3546107169105E-01
40  3.9000000000000E-01  1.1414196279171E+00 -3.2252412506463E-01
41  4.0000000000000E-01  1.1742119340520E+00 -3.0884267839766E-01
42  4.1000000000000E-01  1.2059052236838E+00 -2.9457622110531E-01
43  4.2000000000000E-01  1.2364276284322E+00 -2.7987928342528E-01
44  4.3000000000000E-01  1.2657086166651E+00 -2.6489846448382E-01
45  4.4000000000000E-01  1.2936788416871E+00 -2.4976960847083E-01
46  4.5000000000000E-01  1.3202700222401E+00 -2.3461517513328E-01
47  4.6000000000000E-01  1.3454148611391E+00 -2.1954184782892E-01
48  4.7000000000000E-01  1.3690470071124E+00 -2.0463841873409E-01
49  4.8000000000000E-01  1.3911010640636E+00 -1.8997398652274E-01
50  4.9000000000000E-01  1.4115126510339E+00 -1.7559649699517E-01
51  5.0000000000000E-01  1.4302185151399E+00 -1.6153165180479E-01
52  5.1000000000000E-01  1.4471566986989E+00 -1.4778220469446E-01
53  5.2000000000000E-01  1.4622667606617E+00 -1.3432765859454E-01
54  5.3000000000000E-01  1.4754900513589E+00 -1.2112437064913E-01
55  5.4000000000000E-01  1.4867700384559E+00 -1.0810606582110E-01
56  5.5000000000000E-01  1.4960526809203E+00 -9.5184753279420E-02
57  5.6000000000000E-01  1.5032868467531E+00 -8.2252033395886E-02
58  5.7000000000000E-01  1.5084247692387E+00 -6.9180776972465E-02
59  5.8000000000000E-01  1.5114225355446E+00 -5.5827152381343E-02
60  5.9000000000000E-01  1.5122406006749E+00 -4.2032970724036E-02
61  6.0000000000000E-01  1.5108443190485E+00 -2.7628313990159E-02
62  6.1000000000000E-01  1.5072044853719E+00 -1.2434406603901E-02
63  6.2000000000000E-01  1.5012978759953E+00  3.7333132387498E-03
64  6.3000000000000E-01  1.4931077816065E+00  2.1061969351798E-02
65  6.4000000000000E-01  1.4826245219269E+00  3.9737919956561E-02
66  6.5000000000000E-01  1.4698459330398E+00  5.9943378005234E-02
67  6.6000000000000E-01  1.4547778180995E+00  8.1853031756465E-02
68  6.7000000000000E-01  1.4374343524463E+00  1.0563071812002E-01
69  6.8000000000000E-01  1.4178384345838E+00  1.3142620065460E-01
70  6.9000000000000E-01  1.3960219750507E+00  1.5937210264761E-01
71  7.0000000000000E-01  1.3720261159413E+00  1.8958104345331E-01
72  7.1000000000000E-01  1.3459013746833E+00  2.2214302324517E-01
73  7.2000000000000E-01  1.3177077066488E+00  2.5712309759795E-01
74  7.3000000000000E-01  1.2875144822592E+00  2.9455937891142E-01
75  7.4000000000000E-01  1.2554003754093E+00  3.3446139668860E-01
76  7.5000000000000E-01  1.2214531612798E+00  3.7680884316712E-01
77  7.6000000000000E-01  1.1857694229023E+00  4.2155072485784E-01
78  7.7000000000000E-01  1.1484541671703E+00  4.6860493426709E-01
79  7.8000000000000E-01  1.1096203523316E+00  5.1785824956715E-01
80  7.9000000000000E-01  1.0693883303325E+00  5.6916676334008E-01
81  8.0000000000000E-01  1.0278852086856E+00  6.2235673485992E-01
82  8.1000000000000E-01  9.8524413778795E-01  6.7722585380840E-01
83  8.2000000000000E-01  9.4160353079450E-01  7.3354489694566E-01
84  8.3000000000000E-01  8.9710622424129E-01  7.9105975318894E-01
85  8.4000000000000E-01  8.5189858858901E-01  8.4949378688949E-01
86  8.5000000000000E-01  8.0612959870675E-01  9.0855050393632E-01
87  8.6000000000000E-01  7.5994987502056E-01  9.6791648074558E-01
88  8.7000000000000E-01  7.1351070659844E-01  1.0272645122950E+00
89  8.8000000000000E-01  6.6696306782209E-01  1.0862569322039E+00
90  8.9000000000000E-01  6.2045664049608E-01  1.1445490554971E+00
91  9.0000000000000E-01  5.7413885326181E-01  1.2017926931769E+00
92  9.1000000000000E-01  5.2815395001271E-01  1.2576396870805E+00
93  9.2000000000000E-01  4.8264209864712E-01  1.3117454137575E+00
94  9.3000000000000E-01  4.3773855095073E-01  1.3637722072462E+00
95  9.4000000000000E-01  3.9357286367262E-01  1.4133926526630E+00
96  9.5000000000000E-01  3.5026818996017E-01  1.4602927054070E+00
97  9.6000000000000E-01  3.0794064925471E-01  1.5041745944942E+00
98  9.7000000000000E-01  2.6669878253886E-01  1.5447594730009E+00
99  9.8000000000000E-01  2.2664309848099E-01  1.5817897837579E+00
100  9.9000000000000E-01  1.8786571456268E-01  1.6150313142061E+00
101  1.0000000000000E+00  1.5045009572051E-01  1.6442749206090E+00
102  1.0100000000000E+00  1.1447089140630E-01  1.6693379085097E+00
103  1.0200000000000E+00  7.9993870294948E-02  1.6900650633089E+00
104  1.0300000000000E+00  4.7075950172391E-02  1.7063293319953E+00
105  1.0400000000000E+00  1.5765318841297E-02  1.7180321642595E+00
106  1.0500000000000E+00 -1.3898359778800E-02  1.7251035283235E+00
107  1.0600000000000E+00 -4.1883661781020E-02  1.7275016236762E+00
108  1.0700000000000E+00 -6.8167050568534E-02  1.7252123193972E+00
109  1.0800000000000E+00 -9.2732465650494E-02  1.7182483527012E+00
110  1.0900000000000E+00 -1.1557086451575E-01  1.7066483276276E+00
111  1.1000000000000E+00 -1.3667973023414E-01  1.6904755582742E+00
112  1.1100000000000E+00 -1.5606255830164E-01  1.6698168044889E+00
113  1.1200000000000E+00 -1.7372833688004E-01  1.6447809503607E+00
114  1.1300000000000E+00 -1.8969103495475E-01  1.6154976770387E+00
115  1.1400000000000E+00 -2.0396911302072E-01  1.5821161812371E+00
116  1.1500000000000E+00 -2.1658507067988E-01  1.5448039891280E+00
117  1.1600000000000E+00 -2.2756504496414E-01  1.5037459120307E+00
118  1.1700000000000E+00 -2.3693847226963E-01  1.4591431853154E+00
119  1.1800000000000E+00 -2.4473782546156E-01  1.4112128250519E+00
120  1.1900000000000E+00 -2.5099843597604E-01  1.3601872281213E+00
121  1.2000000000000E+00 -2.5575840856861E-01  1.3063140305976E+00
122  1.2100000000000E+00 -2.5905863371348E-01  1.2498562260861E+00
123  1.2200000000000E+00 -2.6094289954026E-01  1.1910925303660E+00
124  1.2300000000000E+00 -2.6145810153128E-01  1.1303179607879E+00
125  1.2400000000000E+00 -2.6065454403148E-01  1.0678445786145E+00
126  1.2500000000000E+00 -2.5858632285712E-01  1.0040023194652E+00
127  1.2600000000000E+00 -2.5531177291942E-01  9.3913981119743E-01
128  1.2700000000000E+00 -2.5089395881304E-01  8.7362504998738E-01
129  1.2800000000000E+00 -2.4540117963686E-01  8.0784577350417E-01
130  1.2900000000000E+00 -2.3890745195446E-01  7.4220933510172E-01
131  1.3000000000000E+00 -2.3149292672386E-01  6.7714184471488E-01
132  1.3100000000000E+00 -2.2324418710762E-01  6.1308630007454E-01
133  1.3200000000000E+00 -2.1425436436220E-01  5.5049938619301E-01
134  1.3300000000000E+00 -2.0462299841304E-01  4.8984657143359E-01