Er    ONCVPSP-4.0.1  r_core=   2.00187   1.60440   1.90833   1.30131
68.0000     22.0000      241015    zatom,zion,pspd
8      11   3     4   600     0    pspcod,pspxc,lmax,lloc,mmax,r2well
5.99000000  4.00000000  0.00000000    rchrg fchrg qchrg
3     2     2     2     0    nproj
1     1           extension_switch
0                         1.2718933253005E+01  3.2708830188549E+00  6.2900437706071E-01
1  0.0000000000000E+00 -9.5774566055695E-10  1.9609738000081E-09 -2.9394197631483E-09
2  1.0000000000000E-02  6.2646747082037E-02 -2.9856692134254E-02  5.1711624532678E-02
3  2.0000000000000E-02  1.2508427364744E-01 -5.9369957214210E-02  1.0289805777162E-01
4  3.0000000000000E-02  1.8710520774475E-01 -8.8200182956418E-02  1.5304006597721E-01
5  4.0000000000000E-02  2.4850585321412E-01 -1.1601534221288E-01  2.0163026250427E-01
6  5.0000000000000E-02  3.0908797448223E-01 -1.4249467502692E-01  2.4817886206945E-01
7  6.0000000000000E-02  3.6866051832254E-01 -1.6733223947943E-01  2.9221923398703E-01
8  7.0000000000000E-02  4.2704125270539E-01 -1.9024028991455E-01  3.3331319084726E-01
9  8.0000000000000E-02  4.8405830382012E-01 -2.1095244309448E-01  3.7105595205041E-01
10  9.0000000000000E-02  5.3955157352951E-01 -2.2922659524587E-01  4.0508072522721E-01
11  1.0000000000000E-01  5.9337402090112E-01 -2.4484755579673E-01  4.3506285283290E-01
12  1.1000000000000E-01  6.4539279303722E-01 -2.5762936683505E-01  4.6072347605304E-01
13  1.2000000000000E-01  6.9549019217614E-01 -2.6741728091175E-01  4.8183267355528E-01
14  1.3000000000000E-01  7.4356446794477E-01 -2.7408937372328E-01  4.9821203850335E-01
15  1.4000000000000E-01  7.8953042568333E-01 -2.7755777240161E-01  5.0973666355812E-01
16  1.5000000000000E-01  8.3331984391654E-01 -2.7776948456316E-01  5.1633651025485E-01
17  1.6000000000000E-01  8.7488169628642E-01 -2.7470681787863E-01  5.1799714609945E-01
18  1.7000000000000E-01  9.1418217556591E-01 -2.6838738467006E-01  5.1475983989113E-01
19  1.8000000000000E-01  9.5120451971289E-01 -2.5886369086549E-01  5.0672101307680E-01
20  1.9000000000000E-01  9.8594864227555E-01 -2.4622231349727E-01  4.9403105229916E-01
21  2.0000000000000E-01  1.0184305717942E+00 -2.3058267575514E-01  4.7689249562799E-01
22  2.1000000000000E-01  1.0486817071356E+00 -2.1209543335301E-01  4.5555761218808E-01
23  2.2000000000000E-01  1.0767478979176E+00 -1.9094049057739E-01  4.3032540193167E-01
24  2.3000000000000E-01  1.1026883613042E+00 -1.6732466880915E-01  4.0153804907398E-01
25  2.4000000000000E-01  1.1265744484572E+00 -1.4147905449120E-01  3.6957686913447E-01
26  2.5000000000000E-01  1.1484882757850E+00 -1.1365605740777E-01  3.3485779553397E-01
27  2.6000000000000E-01  1.1685212378207E+00 -8.4126213697818E-02  2.9782645721849E-01
28  2.7000000000000E-01  1.1867724200581E+00 -5.3174771200781E-02  2.5895290374212E-01
29  2.8000000000000E-01  1.2033469313658E+00 -2.1098097490755E-02  2.1872603859259E-01
30  2.9000000000000E-01  1.2183541766662E+00  1.1800046741940E-02  1.7764782522259E-01
31  3.0000000000000E-01  1.2319060913861E+00  4.5212324485685E-02  1.3622733321228E-01
32  3.1000000000000E-01  1.2441153597626E+00  7.8831683596558E-02  9.4974694193122E-02
33  3.2000000000000E-01  1.2550936393933E+00  1.1235521582198E-01  5.4395038579703E-02
34  3.3000000000000E-01  1.2649498144681E+00  1.4548796686882E-01  1.4982484757084E-02
35  3.4000000000000E-01  1.2737882998855E+00  1.7794665104660E-01 -2.2785747854955E-02
36  3.5000000000000E-01  1.2817074179624E+00  2.0946322489134E-01 -5.8455031499605E-02
37  3.6000000000000E-01  1.2887978686749E+00  2.3978827560048E-01 -9.1598760073232E-02
38  3.7000000000000E-01  1.2951413133424E+00  2.6869418207077E-01 -1.2182345064510E-01
39  3.8000000000000E-01  1.3008090903833E+00  2.9597800881496E-01 -1.4877345424736E-01
40  3.9000000000000E-01  1.3058610802552E+00  3.2146409600880E-01 -1.7213521793623E-01
41  4.0000000000000E-01  1.3103447349463E+00  3.4500631236654E-01 -1.9164104511186E-01
42  4.1000000000000E-01  1.3142942854399E+00  3.6648994141190E-01 -2.0707230673132E-01
43  4.2000000000000E-01  1.3177301384446E+00  3.8583317597391E-01 -2.1826206231462E-01
44  4.3000000000000E-01  1.3206584713927E+00  4.0298820033196E-01 -2.2509705644096E-01
45  4.4000000000000E-01  1.3230710322918E+00  4.1794184432313E-01 -2.2751906370708E-01
46  4.5000000000000E-01  1.3249451484881E+00  4.3071579883810E-01 -2.2552556276948E-01
47  4.6000000000000E-01  1.3262439458061E+00  4.4136638741969E-01 -2.1916972804614E-01
48  4.7000000000000E-01  1.3269167768869E+00  4.4998389407232E-01 -2.0855973581134E-01
49  4.8000000000000E-01  1.3268998549024E+00  4.5669145282736E-01 -1.9385738968403E-01
50  4.9000000000000E-01  1.3261170861967E+00  4.6164351001999E-01 -1.7527607878586E-01
51  5.0000000000000E-01  1.3244810928416E+00  4.6502387555483E-01 -1.5307809003402E-01
52  5.1000000000000E-01  1.3218944136148E+00  4.6704338459911E-01 -1.2757130403106E-01
53  5.2000000000000E-01  1.3182508695586E+00  4.6793719607749E-01 -9.9105311717512E-02
54  5.3000000000000E-01  1.3134370780798E+00  4.6796175899001E-01 -6.8066996271253E-02
55  5.4000000000000E-01  1.3073340975347E+00  4.6739148187408E-01 -3.4875631575562E-02
56  5.5000000000000E-01  1.2998191824445E+00  4.6651514461749E-01  2.2445163689255E-05
57  5.6000000000000E-01  1.2907676279229E+00  4.6563209526008E-01  3.6159523460293E-02
58  5.7000000000000E-01  1.2800546805943E+00  4.6504827733895E-01  7.3052504185299E-02
59  5.8000000000000E-01  1.2675574922587E+00  4.6507213570304E-01  1.1020910665734E-01
60  5.9000000000000E-01  1.2531570918327E+00  4.6601045050440E-01  1.4713422282812E-01
61  6.0000000000000E-01  1.2367403506820E+00  4.6816415024266E-01  1.8333634089684E-01
62  6.1000000000000E-01  1.2182019163559E+00  4.7182415527760E-01  2.1833395931889E-01
63  6.2000000000000E-01  1.1974460899604E+00  4.7726730311386E-01  2.5166191178218E-01
64  6.3000000000000E-01  1.1743886229464E+00  4.8475240600415E-01  2.8287752431382E-01
65  6.4000000000000E-01  1.1489584099505E+00  4.9451649002046E-01  3.1156652724877E-01
66  6.5000000000000E-01  1.1210990554936E+00  5.0677126271037E-01  3.3734864734230E-01
67  6.6000000000000E-01  1.0907702938034E+00  5.2169985382413E-01  3.5988280879692E-01
68  6.7000000000000E-01  1.0579492427654E+00  5.3945387039118E-01  3.7887187637462E-01
69  6.8000000000000E-01  1.0226314750034E+00  5.6015080368094E-01  3.9406687902834E-01
70  6.9000000000000E-01  9.8483189130932E-01  5.8387182135777E-01  4.0527065853888E-01
71  7.0000000000000E-01  9.4458538407057E-01  6.1065997347885E-01  4.1234089442628E-01
72  7.1000000000000E-01  9.0194728093008E-01  6.4051883595581E-01  4.1519246382225E-01
73  7.2000000000000E-01  8.5699356164169E-01  6.7341160976837E-01  4.1379910295803E-01
74  7.3000000000000E-01  8.0982084390216E-01  7.0926068865312E-01  4.0819434533791E-01
75  7.4000000000000E-01  7.6054613681742E-01  7.4794770227215E-01  3.9847172042109E-01
76  7.5000000000000E-01  7.0930636355332E-01  7.8931403606775E-01  3.8478420561863E-01
77  7.6000000000000E-01  6.5625765759017E-01  8.3316182321070E-01  3.6734293351110E-01
78  7.7000000000000E-01  6.0157443980235E-01  8.7925539833535E-01  3.4641516528478E-01
79  7.8000000000000E-01  5.4544828628338E-01  9.2732319719547E-01  3.2232155036053E-01
80  7.9000000000000E-01  4.8808659939077E-01  9.7706008105390E-01  2.9543270092975E-01
81  8.0000000000000E-01  4.2971109686056E-01  1.0281300596021E+00  2.6616511851165E-01
82  8.1000000000000E-01  3.7055613600186E-01  1.0801693815661E+00  2.3497651759216E-01
83  8.2000000000000E-01  3.1086689189877E-01  1.1327899579515E+00  2.0236059880608E-01
84  8.3000000000000E-01  2.5089741019403E-01  1.1855830791640E+00  1.6884133089241E-01
85  8.4000000000000E-01  1.9090855638061E-01  1.2381233840649E+00  1.3496680669821E-01
86  8.5000000000000E-01  1.3116588457109E-01  1.2899730364170E+00  1.0130274377817E-01
87  8.6000000000000E-01  7.1937449434772E-02  1.3406860621690E+00  6.8425704566325E-02
88  8.7000000000000E-01  1.3491585381826E-02  1.3898127996404E+00  3.6916114645841E-02
89  8.8000000000000E-01 -4.3905322865021E-02  1.4369044139038E+00  7.3511602892061E-03
90  8.9000000000000E-01 -9.9991054437736E-02  1.4815174265152E+00 -1.9702351837757E-02
91  9.0000000000000E-01 -1.5450972793663E-01  1.5232182121980E+00 -4.3695089112451E-02
92  9.1000000000000E-01 -2.0721391607860E-01  1.5615874151191E+00 -6.4102157943270E-02
93  9.2000000000000E-01 -2.5786667812619E-01  1.5962242389659E+00 -8.0429856706124E-02
94  9.3000000000000E-01 -3.0624349025321E-01  1.6267505671017E+00 -9.2222135859654E-02
95  9.4000000000000E-01 -3.5213405563058E-01  1.6528148715746E+00 -9.9066687093604E-02
96  9.5000000000000E-01 -3.9534397782837E-01  1.6740958726442E+00 -1.0060058672945E-01
97  9.6000000000000E-01 -4.3569628308798E-01  1.6903059136749E+00 -9.6515422634481E-02
98  9.7000000000000E-01 -4.7303277907811E-01  1.7011940196771E+00 -8.6561838556255E-02
99  9.8000000000000E-01 -5.0721523986941E-01  1.7065486113683E+00 -7.0553434976171E-02
100  9.9000000000000E-01 -5.3812640899940E-01  1.7061998503036E+00 -4.8369971244575E-02
101  1.0000000000000E+00 -5.6567081460693E-01  1.7000215943224E+00 -1.9959819836472E-02
102  1.0100000000000E+00 -5.8977539265482E-01  1.6879329461944E+00  1.4658369990778E-02
103  1.0200000000000E+00 -6.1038991618582E-01  1.6698993818706E+00  5.5394835095492E-02
104  1.0300000000000E+00 -6.2748723033822E-01  1.6459334480919E+00  1.0208871680424E-01
105  1.0400000000000E+00 -6.4106329445169E-01  1.6160950222448E+00  1.5450895625540E-01
106  1.0500000000000E+00 -6.5113703399279E-01  1.5804911302412E+00  2.1235608060286E-01
107  1.0600000000000E+00 -6.5775000621184E-01  1.5392753208332E+00  2.7526488590889E-01
108  1.0700000000000E+00 -6.6096588439523E-01  1.4926465971630E+00  3.4280801406312E-01
109  1.0800000000000E+00 -6.6086976630366E-01  1.4408479085132E+00  4.1450041202302E-01
110  1.0900000000000E+00 -6.5756731290077E-01  1.3841642072247E+00  4.8980465189149E-01
111  1.1000000000000E+00 -6.5118372380445E-01  1.3229200776724E+00  5.6813707964764E-01
112  1.1100000000000E+00 -6.4186255607349E-01  1.2574769461294E+00  6.4887474849057E-01
113  1.1200000000000E+00 -6.2976439303230E-01  1.1882298824733E+00  7.3136307938687E-01
114  1.1300000000000E+00 -6.1506536990706E-01  1.1156040071436E+00  8.1492417628212E-01
115  1.1400000000000E+00 -5.9795556318694E-01  1.0400505197945E+00  8.9886570597170E-01
116  1.1500000000000E+00 -5.7863725094093E-01  9.6204236990911E-01  9.8249023257687E-01
117  1.1600000000000E+00 -5.5732305194693E-01  8.8206959460695E-01  1.0651048731126E+00
118  1.1700000000000E+00 -5.3423395256309E-01  8.0063435524199E-01  1.1460311135061E+00
119  1.1800000000000E+00 -5.0959723197893E-01  7.1824571262939E-01  1.2246145925814E+00
120  1.1900000000000E+00 -4.8364429900146E-01  6.3541419119486E-01  1.3002346245657E+00
121  1.2000000000000E+00 -4.5660845708992E-01  5.5264619555173E-01  1.3723131875502E+00
122  1.2100000000000E+00 -4.2872261920860E-01  4.7043835953515E-01  1.4403230551083E+00
123  1.2200000000000E+00 -4.0021700043369E-01  3.8927192797482E-01  1.5037946904196E+00
124  1.2300000000000E+00 -3.7131682454892E-01  3.0960729647455E-01  1.5623214547339E+00
125  1.2400000000000E+00 -3.4224009126265E-01  2.3187886441063E-01  1.6155626049626E+00
126  1.2500000000000E+00 -3.1319546368830E-01  1.5649039247080E-01  1.6632434661858E+00
127  1.2600000000000E+00 -2.8438035171270E-01  8.3811099048707E-02  1.7051520629632E+00
128  1.2700000000000E+00 -2.5597928612486E-01  1.4172780240170E-02  1.7411313778120E+00
129  1.2800000000000E+00 -2.2816270176099E-01 -5.2131701868223E-02  1.7710662692258E+00
130  1.2900000000000E+00 -2.0108627604088E-01 -1.1484814689998E-01  1.7948639208261E+00
131  1.3000000000000E+00 -1.7489099073801E-01 -1.7375849901825E-01  1.8124268329521E+00
132  1.3100000000000E+00 -1.4970405779100E-01 -2.2867572805483E-01  1.8236194068704E+00
133  1.3200000000000E+00 -1.2563873387976E-01 -2.7944246778701E-01  1.8282911448188E+00
134  1.3300000000000E+00 -1.0279267403686E-01 -3.2593521507319E-01  1.8263404109679E+00
135  1.3400000000000E+00 -8.1247634253849E-02 -3.6806512511997E-01  1.8177244303767E+00
136  1.3500000000000E+00 -6.1069602144123E-02 -4.0577767605380E-01  1.8024586620842E+00
137  1.3600000000000E+00 -4.2309072954594E-02 -4.3905202106853E-01  1.7806157197601E+00
138  1.3700000000000E+00 -2.5001465953921E-02 -4.6790003268241E-01  1.7523237380984E+00
139  1.3800000000000E+00 -9.1676700374699E-03 -4.9236506186161E-01  1.7177642397350E+00
140  1.3900000000000E+00  5.1852928315631E-03 -5.1252043451935E-01  1.6771695295937E+00
141  1.4000000000000E+00  1.8063498839393E-02 -5.2846771054107E-01  1.6308196529892E+00
142  1.4100000000000E+00  2.9485261500046E-02 -5.4033473243103E-01  1.5790389580806E+00
143  1.4200000000000E+00  3.9480192671483E-02 -5.4827349211657E-01  1.5221923062456E+00
144  1.4300000000000E+00  4.8088199677933E-02 -5.5245784554783E-01  1.4606809767330E+00
145  1.4400000000000E+00  5.5358432994959E-02 -5.5308110541969E-01  1.3949383140882E+00
146  1.4500000000000E+00  6.1348198939765E-02 -5.5035354261371E-01  1.3254251682456E+00
147  1.4600000000000E+00  6.6121851603950E-02 -5.4449982683742E-01  1.2526251780193E+00
148  1.4700000000000E+00  6.9749677898191E-02 -5.3575643649568E-01  1.1770399491746E+00
149  1.4800000000000E+00  7.2306789011441E-02 -5.2436906694319E-01  1.0991841777546E+00
150  1.4900000000000E+00  7.3872030882988E-02 -5.1059006510448E-01  1.0195807685332E+00
151  1.5000000000000E+00  7.4526925449776E-02 -4.9467591700602E-01  9.3875599722820E-01
152  1.5100000000000E+00  7.4354653431958E-02 -4.7688481293102E-01  8.5723476289649E-01
153  1.5200000000000E+00  7.3439088366794E-02 -4.5747431298841E-01  7.7553597491605E-01
154  1.5300000000000E+00  7.1863890416540E-02 -4.3669913362911E-01  6.9416811598674E-01
155  1.5400000000000E+00  6.9711667229690E-02 -4.1480907323549E-01  6.1362501936622E-01
156  1.5500000000000E+00  6.7063207893097E-02 -3.9204709251176E-01  5.3438189546642E-01
157  1.5600000000000E+00  6.3996794937142E-02 -3.6864756346792E-01  4.5689164156436E-01
158  1.5700000000000E+00  6.0587596615454E-02 -3.4483469411268E-01  3.8158145054080E-01
159  1.5800000000000E+00  5.6907143877383E-02 -3.2082114318156E-01  3.0884976456882E-01
160  1.5900000000000E+00  5.3022890164296E-02 -2.9680682243561E-01  2.3906356676063E-01
161  1.6000000000000E+00  4.8997855513987E-02 -2.7297789438787E-01  1.7255604399662E-01
162  1.6100000000000E+00  4.4890352586681E-02 -2.4950596317330E-01  1.0962462364252E-01
163  1.6200000000000E+00  4.0753792168640E-02 -2.2654745678550E-01  5.0529392601690E-02
164  1.6300000000000E+00  3.6636564508269E-02 -2.0424319607262E-01 -4.5080990337560E-03
165  1.6400000000000E+00  3.2581991952680E-02 -1.8271814382734E-01 -5.5305651387731E-02
166  1.6500000000000E+00  2.8628347619083E-02 -1.6208132554892E-01 -1.0172085037416E-01
167  1.6600000000000E+00  2.4808934182766E-02 -1.4242591180278E-01 -1.4365113413479E-01
168  1.6700000000000E+00  2.1152216314371E-02 -1.2382945062079E-01 -1.8103350251632E-01
169  1.6800000000000E+00  1.7681999956730E-02 -1.0635423734453E-01 -2.1384388439162E-01
170  1.6900000000000E+00  1.4417651327585E-02 -9.0047808274740E-02 -2.4209618064423E-01
171  1.7000000000000E+00  1.1374348438428E-02 -7.4943543902586E-02 -2.6584100276376E-01
172  1.7100000000000E+00  8.5633578765550E-03 -6.1061366965506E-02 -2.8516412930800E-01
173  1.7200000000000E+00  5.9923297465013E-03 -4.8408520459195E-02 -3.0018470397683E-01
174  1.7300000000000E+00  3.6656038824273E-03 -3.6980410731719E-02 -3.1105320052124E-01
175  1.7400000000000E+00  1.5845207526588E-03 -2.6761500969040E-02 -3.1794918092235E-01
176  1.7500000000000E+00 -2.5226906228909E-04 -1.7726240905753E-02 -3.2107887379638E-01
177  1.7600000000000E+00 -1.8485024382709E-03 -9.8400191850195E-03 -3.2067260049556E-01
178  1.7700000000000E+00 -3.2100134070764E-03 -3.0601254603861E-03 -3.1698207677701E-01
179  1.7800000000000E+00 -4.3444591957394E-03  2.6632891664418E-03 -3.1027761640167E-01
180  1.7900000000000E+00 -5.2610672750802E-03  7.3862665464932E-03 -3.0084526916399E-01
181  1.8000000000000E+00 -5.9704039297124E-03  1.1170114332785E-02 -2.8898390554634E-01
182  1.8100000000000E+00 -6.4841694225275E-03  1.4080512653746E-02 -2.7500228952811E-01
183  1.8200000000000E+00 -6.8150232686152E-03  1.6186666731709E-02 -2.5921617536443E-01
184  1.8300000000000E+00 -6.9764302321277E-03  1.7560486467441E-02 -2.4194539338141E-01
185  1.8400000000000E+00 -6.9825415463080E-03  1.8275832981695E-02 -2.2351102876123E-01
186  1.8500000000000E+00 -6.8481001764419E-03  1.8407809605842E-02 -2.0423265317294E-01
187  1.8600000000000E+00 -6.5883735370501E-03  1.8032110868620E-02 -1.8442565419331E-01
188  1.8700000000000E+00 -6.2190943982447E-03  1.7224398177750E-02 -1.6439863917138E-01
189  1.8800000000000E+00 -5.7565818445103E-03  1.6060019677487E-02 -1.4445130136582E-01
190  1.8900000000000E+00 -5.2173046437079E-03  1.4612735980759E-02 -1.2487119678933E-01
191  1.9000000000000E+00 -4.6185921194362E-03  1.2955551701700E-02 -1.0593307040541E-01
192  1.9100000000000E+00 -3.9894359740505E-03  1.1180004030203E-02 -8.7919935386858E-02
193  1.9200000000000E+00 -3.3648096459016E-03  9.3854525358119E-03 -7.1109128016881E-02
194  1.9300000000000E+00 -2.7534013072738E-03  7.6198571240021E-03 -5.5701590558492E-02
195  1.9400000000000E+00 -2.1660311935705E-03  5.9311746183381E-03 -4.1880880044648E-02
196  1.9500000000000E+00 -1.6154018302743E-03  4.3666360162640E-03 -2.9811317060250E-02
197  1.9600000000000E+00 -1.1162779190345E-03  2.9728444860757E-03 -1.9637250110016E-02
198  1.9700000000000E+00 -6.8571760006994E-04  1.7961415369537E-03 -1.1485184534939E-02
199  1.9800000000000E+00 -3.4128617450917E-04  8.7811580339691E-04 -5.4383159119578E-03
200  1.9900000000000E+00 -1.0685159189724E-04  2.6961392260539E-04 -1.6159313144884E-03
201  2.0000000000000E+00 -6.9278237015361E-06  1.6966740272864E-05 -9.5904936660341E-05
202  2.0100000000000E+00  3.8373689640190E-06 -9.4662120680037E-06  5.4929647955710E-05
203  2.0200000000000E+00 -1.6330723814170E-06  4.0768057794221E-06 -2.4073958719955E-05
204  2.03  0. -0.  0.
205  2.04  0. -0.  0.
206  2.05  0. -0.  0.
207  2.06  0.  0.  0.
208  2.07  0.  0.  0.
209  2.08  0.  0.  0.
210  2.09  0.  0.  0.
211  2.10  0.  0.  0.
212  2.11  0.  0.  0.
213  2.12  0.  0.  0.
214  2.13  0.  0.  0.
215  2.14  0.  0.  0.
216  2.15  0.  0.  0.
217  2.16  0.  0.  0.
218  2.17  0.  0.  0.
219  2.18  0.  0.  0.
220  2.19  0.  0.  0.
221  2.20  0.  0.  0.
222  2.21  0.  0.  0.
223  2.22  0.  0.  0.
224  2.23  0.  0.  0.
225  2.24  0.  0.  0.
226  2.25  0.  0.  0.
227  2.26  0.  0.  0.
228  2.27  0.  0.  0.
229  2.28  0.  0.  0.
230  2.29  0.  0.  0.
231  2.30  0.  0.  0.
232  2.31  0.  0.  0.
233  2.32  0.  0.  0.
234  2.33  0.  0.  0.
235  2.34  0.  0.  0.
236  2.35  0.  0.  0.
237  2.36  0.  0.  0.
238  2.37  0.  0.  0.
239  2.38  0.  0.  0.
240  2.39  0.  0.  0.
241  2.40  0.  0.  0.
242  2.41  0.  0.  0.
243  2.42  0.  0.  0.
244  2.43  0.  0.  0.
245  2.44  0.  0.  0.
246  2.45  0.  0.  0.
247  2.46  0.  0.  0.
248  2.47  0.  0.  0.
249  2.48  0.  0.  0.
250  2.49  0.  0.  0.
251  2.50  0.  0.  0.
252  2.51  0.  0.  0.
253  2.52  0.  0.  0.
254  2.53  0.  0.  0.
255  2.54  0.  0.  0.
256  2.55  0.  0.  0.
257  2.56  0.  0.  0.
258  2.57  0.  0.  0.
259  2.58  0.  0.  0.
260  2.59  0.  0.  0.
261  2.60  0.  0.  0.
262  2.61  0.  0.  0.
263  2.62  0.  0.  0.
264  2.63  0.  0.  0.
265  2.64  0.  0.  0.
266  2.65  0.  0.  0.
267  2.66  0.  0.  0.
268  2.67  0.  0.  0.
269  2.68  0.  0.  0.
270  2.69  0.  0.  0.
271  2.70  0.  0.  0.
272  2.71  0.  0.  0.
273  2.72  0.  0.  0.
274  2.73  0.  0.  0.
275  2.74  0.  0.  0.
276  2.75  0.  0.  0.
277  2.76  0.  0.  0.
278  2.77  0.  0.  0.
279  2.78  0.  0.  0.
280  2.79  0.  0.  0.
281  2.80  0.  0.  0.
282  2.81  0.  0.  0.
283  2.82  0.  0.  0.
284  2.83  0.  0.  0.
285  2.84  0.  0.  0.
286  2.85  0.  0.  0.
287  2.86  0.  0.  0.
288  2.87  0.  0.  0.
289  2.88  0.  0.  0.
290  2.89  0.  0.  0.
291  2.90  0.  0.  0.
292  2.91  0.  0.  0.
293  2.92  0.  0.  0.
294  2.93  0.  0.  0.
295  2.94  0.  0.  0.
296  2.95  0.  0.  0.
297  2.96  0.  0.  0.
298  2.97  0.  0.  0.
299  2.98  0.  0.  0.
300  2.99  0.  0.  0.
301  3.00  0.  0.  0.
302  3.01  0.  0.  0.
303  3.02  0.  0.  0.
304  3.03  0.  0.  0.
305  3.04  0.  0.  0.
306  3.05  0.  0.  0.
307  3.06  0.  0.  0.
308  3.07  0.  0.  0.
309  3.08  0.  0.  0.
310  3.09  0.  0.  0.
311  3.10  0.  0.  0.
312  3.11  0.  0.  0.
313  3.12  0.  0.  0.
314  3.13  0.  0.  0.
315  3.14  0.  0.  0.
316  3.15  0.  0.  0.
317  3.16  0.  0.  0.
318  3.17  0.  0.  0.
319  3.18  0.  0.  0.
320  3.19  0.  0.  0.
321  3.20  0.  0.  0.
322  3.21  0.  0.  0.
323  3.22  0.  0.  0.
324  3.23  0.  0.  0.
325  3.24  0.  0.  0.
326  3.25  0.  0.  0.
327  3.26  0.  0.  0.
328  3.27  0.  0.  0.
329  3.28  0.  0.  0.
330  3.29  0.  0.  0.
331  3.30  0.  0.  0.
332  3.31  0.  0.  0.
333  3.32  0.  0.  0.
334  3.33  0.  0.  0.
335  3.34  0.  0.  0.
336  3.35  0.  0.  0.
337  3.36  0.  0.  0.
338  3.37  0.  0.  0.
339  3.38  0.  0.  0.
340  3.39  0.  0.  0.
341  3.40  0.  0.  0.
342  3.41  0.  0.  0.
343  3.42  0.  0.  0.
344  3.43  0.  0.  0.
345  3.44  0.  0.  0.
346  3.45  0.  0.  0.
347  3.46  0.  0.  0.
348  3.47  0.  0.  0.
349  3.48  0.  0.  0.
350  3.49  0.  0.  0.
351  3.50  0.  0.  0.
352  3.51  0.  0.  0.
353  3.52  0.  0.  0.
354  3.53  0.  0.  0.
355  3.54  0.  0.  0.
356  3.55  0.  0.  0.
357  3.56  0.  0.  0.
358  3.57  0.  0.  0.
359  3.58  0.  0.  0.
360  3.59  0.  0.  0.
361  3.60  0.  0.  0.
362  3.61  0.  0.  0.
363  3.62  0.  0.  0.
364  3.63  0.  0.  0.
365  3.64  0.  0.  0.
366  3.65  0.  0.  0.
367  3.66  0.  0.  0.
368  3.67  0.  0.  0.
369  3.68  0.  0.  0.
370  3.69  0.  0.  0.
371  3.70  0.  0.  0.
372  3.71  0.  0.  0.
373  3.72  0.  0.  0.
374  3.73  0.  0.  0.
375  3.74  0.  0.  0.
376  3.75  0.  0.  0.
377  3.76  0.  0.  0.
378  3.77  0.  0.  0.
379  3.78  0.  0.  0.
380  3.79  0.  0.  0.
381  3.80  0.  0.  0.
382  3.81  0.  0.  0.
383  3.82  0.  0.  0.
384  3.83  0.  0.  0.
385  3.84  0.  0.  0.
386  3.85  0.  0.  0.
387  3.86  0.  0.  0.
388  3.87  0.  0.  0.
389  3.88  0.  0.  0.
390  3.89  0.  0.  0.
391  3.90  0.  0.  0.
392  3.91  0.  0.  0.
393  3.92  0.  0.  0.
394  3.93  0.  0.  0.
395  3.94  0.  0.  0.
396  3.95  0.  0.  0.
397  3.96  0.  0.  0.
398  3.97  0.  0.  0.
399  3.98  0.  0.  0.
400  3.99  0.  0.  0.
401  4.00  0.  0.  0.
402  4.01  0.  0.  0.
403  4.02  0.  0.  0.
404  4.03  0.  0.  0.
405  4.04  0.  0.  0.
406  4.05  0.  0.  0.
407  4.06  0.  0.  0.
408  4.07  0.  0.  0.
409  4.08  0.  0.  0.
410  4.09  0.  0.  0.
411  4.10  0.  0.  0.
412  4.11  0.  0.  0.
413  4.12  0.  0.  0.
414  4.13  0.  0.  0.
415  4.14  0.  0.  0.
416  4.15  0.  0.  0.
417  4.16  0.  0.  0.
418  4.17  0.  0.  0.
419  4.18  0.  0.  0.
420  4.19  0.  0.  0.
421  4.20  0.  0.  0.
422  4.21  0.  0.  0.
423  4.22  0.  0.  0.
424  4.23  0.  0.  0.
425  4.24  0.  0.  0.
426  4.25  0.  0.  0.
427  4.26  0.  0.  0.
428  4.27  0.  0.  0.
429  4.28  0.  0.  0.
430  4.29  0.  0.  0.
431  4.30  0.  0.  0.
432  4.31  0.  0.  0.
433  4.32  0.  0.  0.
434  4.33  0.  0.  0.
435  4.34  0.  0.  0.
436  4.35  0.  0.  0.
437  4.36  0.  0.  0.
438  4.37  0.  0.  0.
439  4.38  0.  0.  0.
440  4.39  0.  0.  0.
441  4.40  0.  0.  0.
442  4.41  0.  0.  0.
443  4.42  0.  0.  0.
444  4.43  0.  0.  0.
445  4.44  0.  0.  0.
446  4.45  0.  0.  0.
447  4.46  0.  0.  0.
448  4.47  0.  0.  0.
449  4.48  0.  0.  0.
450  4.49  0.  0.  0.
451  4.50  0.  0.  0.
452  4.51  0.  0.  0.
453  4.52  0.  0.  0.
454  4.53  0.  0.  0.
455  4.54  0.  0.  0.
456  4.55  0.  0.  0.
457  4.56  0.  0.  0.
458  4.57  0.  0.  0.
459  4.58  0.  0.  0.
460  4.59  0.  0.  0.
461  4.60  0.  0.  0.
462  4.61  0.  0.  0.
463  4.62  0.  0.  0.
464  4.63  0.  0.  0.
465  4.64  0.  0.  0.
466  4.65  0.  0.  0.
467  4.66  0.  0.  0.
468  4.67  0.  0.  0.
469  4.68  0.  0.  0.
470  4.69  0.  0.  0.
471  4.70  0.  0.  0.
472  4.71  0.  0.  0.
473  4.72  0.  0.  0.
474  4.73  0.  0.  0.
475  4.74  0.  0.  0.
476  4.75  0.  0.  0.
477  4.76  0.  0.  0.
478  4.77  0.  0.  0.
479  4.78  0.  0.  0.
480  4.79  0.  0.  0.
481  4.80  0.  0.  0.
482  4.81  0.  0.  0.
483  4.82  0.  0.  0.
484  4.83  0.  0.  0.
485  4.84  0.  0.  0.
486  4.85  0.  0.  0.
487  4.86  0.  0.  0.
488  4.87  0.  0.  0.
489  4.88  0.  0.  0.
490  4.89  0.  0.  0.
491  4.90  0.  0.  0.
492  4.91  0.  0.  0.
493  4.92  0.  0.  0.
494  4.93  0.  0.  0.
495  4.94  0.  0.  0.
496  4.95  0.  0.  0.
497  4.96  0.  0.  0.
498  4.97  0.  0.  0.
499  4.98  0.  0.  0.
500  4.99  0.  0.  0.
501  5.00  0.  0.  0.
502  5.01  0.  0.  0.
503  5.02  0.  0.  0.
504  5.03  0.  0.  0.
505  5.04  0.  0.  0.
506  5.05  0.  0.  0.
507  5.06  0.  0.  0.
508  5.07  0.  0.  0.
509  5.08  0.  0.  0.
510  5.09  0.  0.  0.
511  5.10  0.  0.  0.
512  5.11  0.  0.  0.
513  5.12  0.  0.  0.
514  5.13  0.  0.  0.
515  5.14  0.  0.  0.
516  5.15  0.  0.  0.
517  5.16  0.  0.  0.
518  5.17  0.  0.  0.
519  5.18  0.  0.  0.
520  5.19  0.  0.  0.
521  5.20  0.  0.  0.
522  5.21  0.  0.  0.
523  5.22  0.  0.  0.
524  5.23  0.  0.  0.
525  5.24  0.  0.  0.
526  5.25  0.  0.  0.
527  5.26  0.  0.  0.
528  5.27  0.  0.  0.
529  5.28  0.  0.  0.
530  5.29  0.  0.  0.
531  5.30  0.  0.  0.
532  5.31  0.  0.  0.
533  5.32  0.  0.  0.
534  5.33  0.  0.  0.
535  5.34  0.  0.  0.
536  5.35  0.  0.  0.
537  5.36  0.  0.  0.
538  5.37  0.  0.  0.
539  5.38  0.  0.  0.
540  5.39  0.  0.  0.
541  5.40  0.  0.  0.
542  5.41  0.  0.  0.
543  5.42  0.  0.  0.
544  5.43  0.  0.  0.
545  5.44  0.  0.  0.
546  5.45  0.  0.  0.
547  5.46  0.  0.  0.
548  5.47  0.  0.  0.
549  5.48  0.  0.  0.
550  5.49  0.  0.  0.
551  5.50  0.  0.  0.
552  5.51  0.  0.  0.
553  5.52  0.  0.  0.
554  5.53  0.  0.  0.
555  5.54  0.  0.  0.
556  5.55  0.  0.  0.
557  5.56  0.  0.  0.
558  5.57  0.  0.  0.
559  5.58  0.  0.  0.
560  5.59  0.  0.  0.
561  5.60  0.  0.  0.
562  5.61  0.  0.  0.
563  5.62  0.  0.  0.
564  5.63  0.  0.  0.
565  5.64  0.  0.  0.
566  5.65  0.  0.  0.
567  5.66  0.  0.  0.
568  5.67  0.  0.  0.
569  5.68  0.  0.  0.
570  5.69  0.  0.  0.
571  5.70  0.  0.  0.
572  5.71  0.  0.  0.
573  5.72  0.  0.  0.
574  5.73  0.  0.  0.
575  5.74  0.  0.  0.
576  5.75  0.  0.  0.
577  5.76  0.  0.  0.
578  5.77  0.  0.  0.
579  5.78  0.  0.  0.
580  5.79  0.  0.  0.
581  5.80  0.  0.  0.
582  5.81  0.  0.  0.
583  5.82  0.  0.  0.
584  5.83  0.  0.  0.
585  5.84  0.  0.  0.
586  5.85  0.  0.  0.
587  5.86  0.  0.  0.
588  5.87  0.  0.  0.
589  5.88  0.  0.  0.
590  5.89  0.  0.  0.
591  5.90  0.  0.  0.
592  5.91  0.  0.  0.
593  5.92  0.  0.  0.
594  5.93  0.  0.  0.
595  5.94  0.  0.  0.
596  5.95  0.  0.  0.
597  5.96  0.  0.  0.
598  5.97  0.  0.  0.
599  5.98  0.  0.  0.
600  5.99  0.  0.  0.
1                         7.5533814486640E+00  8.5044064455015E-01
1  0.0000000000000E+00  4.1274758610932E-10 -2.3595712675406E-09
2  1.0000000000000E-02  1.1143477259691E-03 -8.8749254204207E-04
3  2.0000000000000E-02  4.4535512540227E-03 -3.5413402895285E-03
4  3.0000000000000E-02  1.0006113616360E-02 -7.9357540872963E-03
5  4.0000000000000E-02  1.7752946243179E-02 -1.4028085633361E-02
6  5.0000000000000E-02  2.7667477727601E-02 -2.1759323336443E-02
7  6.0000000000000E-02  3.9715804507366E-02 -3.1054777422443E-02
8  7.0000000000000E-02  5.3856881898310E-02 -4.1824945335892E-02
9  8.0000000000000E-02  7.0042753501868E-02 -5.3966546122877E-02
10  9.0000000000000E-02  8.8218816621257E-02 -6.7363710267993E-02
11  1.0000000000000E-01  1.0832412096354E-01 -8.1889309418457E-02
12  1.1000000000000E-01  1.3029169758208E-01 -9.7406408590340E-02
13  1.2000000000000E-01  1.5404891473024E-01 -1.1376982183955E-01
14  1.3000000000000E-01  1.7951785705598E-01 -1.3082775101500E-01
15  1.4000000000000E-01  2.0661572437204E-01 -1.4842348611223E-01
16  1.5000000000000E-01  2.3525524608930E-01 -1.6639714492808E-01
17  1.6000000000000E-01  2.6534510730497E-01 -1.8458742919269E-01
18  1.7000000000000E-01  2.9679038249256E-01 -2.0283337413269E-01
19  1.8000000000000E-01  3.2949297274865E-01 -2.2097606850324E-01
20  1.9000000000000E-01  3.6335204261224E-01 -2.3886032251802E-01
21  2.0000000000000E-01  3.9826445258490E-01 -2.5633626180144E-01
22  2.1000000000000E-01  4.3412518364281E-01 -2.7326082647969E-01
23  2.2000000000000E-01  4.7082775024345E-01 -2.8949915580603E-01
24  2.3000000000000E-01  5.0826459858701E-01 -3.0492584026552E-01
25  2.4000000000000E-01  5.4632748719187E-01 -3.1942602490767E-01
26  2.5000000000000E-01  5.8490784718201E-01 -3.3289634968992E-01
27  2.6000000000000E-01  6.2389712005578E-01 -3.4524571485525E-01
28  2.7000000000000E-01  6.6318707110618E-01 -3.5639586178590E-01
29  2.8000000000000E-01  7.0267007708687E-01 -3.6628176234094E-01
30  2.9000000000000E-01  7.4223938715888E-01 -3.7485181236497E-01
31  3.0000000000000E-01  7.8178935660561E-01 -3.8206782781403E-01
32  3.1000000000000E-01  8.2121565325962E-01 -3.8790484474576E-01
33  3.2000000000000E-01  8.6041543703937E-01 -3.9235072722582E-01
34  3.3000000000000E-01  8.9928751343897E-01 -3.9540558997438E-01
35  3.4000000000000E-01  9.3773246224294E-01 -3.9708104527495E-01
36  3.5000000000000E-01  9.7565274314496E-01 -3.9739928625659E-01
37  3.6000000000000E-01  1.0129527803264E+00 -3.9639202110046E-01
38  3.7000000000000E-01  1.0495390283933E+00 -3.9409927497920E-01
39  3.8000000000000E-01  1.0853200223703E+00 -3.9056807857613E-01
40  3.9000000000000E-01  1.1202064147060E+00 -3.8585106382214E-01
41  4.0000000000000E-01  1.1541110024462E+00 -3.8000498900043E-01
42  4.1000000000000E-01  1.1869487478808E+00 -3.7308921657956E-01
43  4.2000000000000E-01  1.2186367960586E+00 -3.6516416802097E-01
44  4.3000000000000E-01  1.2490944925944E+00 -3.5628978035197E-01
45  4.4000000000000E-01  1.2782434051564E+00 -3.4652398948591E-01
46  4.5000000000000E-01  1.3060073519274E+00 -3.3592126510051E-01