Er    ONCVPSP-4.0.1  r_core=   2.00187   1.60440   1.90833   1.30131
68.0000     22.0000      241104    zatom,zion,pspd
8      11   3     4   600     0    pspcod,pspxc,lmax,lloc,mmax,r2well
5.99000000  4.00000000  0.00000000    rchrg fchrg qchrg
3     2     2     2     0    nproj
1     1           extension_switch
0                         1.2667451112710E+01  3.2275194102126E+00  6.1616944290068E-01
1  0.0000000000000E+00 -9.5854046922028E-10  1.9742860124516E-09 -2.9664714018551E-09
2  1.0000000000000E-02  6.2365723915030E-02 -2.9949609892272E-02  5.1754416630929E-02
3  2.0000000000000E-02  1.2452349815750E-01 -5.9554955222316E-02  1.0298100497232E-01
4  3.0000000000000E-02  1.8626721647877E-01 -8.8475602880729E-02  1.5315793514359E-01
5  4.0000000000000E-02  2.4739443815408E-01 -1.1637873800928E-01  2.0177530552494E-01
6  5.0000000000000E-02  3.0770816768100E-01 -1.4294286199733E-01  2.4834093625620E-01
7  6.0000000000000E-02  3.6701857148858E-01 -1.6786135853756E-01  2.9238596010174E-01
8  7.0000000000000E-02  4.2514461179761E-01 -1.9084588610170E-01  3.3347014665290E-01
9  8.0000000000000E-02  4.8191557873109E-01 -2.1162955717129E-01  3.7118689880592E-01
10  9.0000000000000E-02  5.3717250295231E-01 -2.2996986698701E-01  4.0516786410367E-01
11  1.0000000000000E-01  5.9076943249397E-01 -2.4565133743554E-01  4.3508710782416E-01
12  1.1000000000000E-01  6.4257455901897E-01 -2.5848784494650E-01  4.6066479959418E-01
13  1.2000000000000E-01  6.9247118050629E-01 -2.6832460488676E-01  4.8167037074997E-01
14  1.3000000000000E-01  7.4035848926279E-01 -2.7503978887807E-01  4.9792510560254E-01
15  1.4000000000000E-01  7.8615217620419E-01 -2.7854575568207E-01  5.0930413612736E-01
16  1.5000000000000E-01  8.2978484450195E-01 -2.7878988074983E-01  5.1573781632320E-01
17  1.6000000000000E-01  8.7120622793503E-01 -2.7575497417199E-01  5.1721245949746E-01
18  1.7000000000000E-01  9.1038321158867E-01 -2.6945928153760E-01  5.1377042896009E-01
19  1.8000000000000E-01  9.4729965488404E-01 -2.5995606706608E-01  5.0550957997109E-01
20  1.9000000000000E-01  9.8195601927276E-01 -2.4733278325778E-01  4.9258205820107E-01
21  2.0000000000000E-01  1.0143688052642E+00 -2.3170983616402E-01  4.7519246735346E-01
22  2.1000000000000E-01  1.0445698057438E+00 -2.1323896015104E-01  4.5359542587961E-01
23  2.2000000000000E-01  1.0726051847594E+00 -1.9210122066686E-01  4.2809253980633E-01
24  2.3000000000000E-01  1.0985343930770E+00 -1.6850466796722E-01  3.9902882551955E-01
25  2.4000000000000E-01  1.1224289338054E+00 -1.4268166895862E-01  3.6678862281849E-01
26  2.5000000000000E-01  1.1443709932474E+00 -1.1488594822905E-01  3.3179104460761E-01
27  2.6000000000000E-01  1.1644519538181E+00 -8.5389372908856E-02  2.9448501514979E-01
28  2.7000000000000E-01  1.1827708073690E+00 -5.4478519193583E-02  2.5534395380005E-01
29  2.8000000000000E-01  1.1994324885413E+00 -2.2451061129342E-02  2.1486016551742E-01
30  2.9000000000000E-01  1.2145461488350E+00  1.0387975430968E-02  1.7353900314958E-01
31  3.0000000000000E-01  1.2282233928977E+00  4.3730048970210E-02  1.3189286946221E-01
32  3.1000000000000E-01  1.2405764991079E+00  7.7266982510680E-02  9.0435129098132E-02
33  3.2000000000000E-01  1.2517166468305E+00  1.1069484106998E-01  4.9674002063116E-02
34  3.3000000000000E-01  1.2617521727619E+00  1.4371775933404E-01  1.0106510932086E-02
35  3.4000000000000E-01  1.2707868785497E+00  1.7605167284176E-01 -2.7787446269591E-02
36  3.5000000000000E-01  1.2789184113668E+00  2.0742790686631E-01 -6.3550826639754E-02
37  3.6000000000000E-01  1.2862367383488E+00  2.3759657861632E-01 -9.6754907473989E-02
38  3.7000000000000E-01  1.2928227347725E+00  2.6632977036001E-01 -1.2700441962554E-01
39  3.8000000000000E-01  1.2987469045653E+00  2.9342443358116E-01 -1.5394228648023E-01
40  3.9000000000000E-01  1.3040682502177E+00  3.1870498727357E-01 -1.7725391017760E-01
41  4.0000000000000E-01  1.3088333074204E+00  3.4202557695099E-01 -1.9667095174372E-01
42  4.1000000000000E-01  1.3130753578030E+00  3.6327196484766E-01 -2.1197455750413E-01
43  4.2000000000000E-01  1.3168138310166E+00  3.8236302606886E-01 -2.2299799045876E-01
44  4.3000000000000E-01  1.3200539051142E+00  3.9925183008069E-01 -2.2962863216568E-01
45  4.4000000000000E-01  1.3227863117641E+00  4.1392629183903E-01 -2.3180932800595E-01
46  4.5000000000000E-01  1.3249873503042E+00  4.2640938200365E-01 -2.2953905641828E-01
47  4.6000000000000E-01  1.3266191120528E+00  4.3675889099780E-01 -2.2287291070649E-01
48  4.7000000000000E-01  1.3276299136499E+00  4.4506674709572E-01 -2.1192139024093E-01
49  4.8000000000000E-01  1.3279549355625E+00  4.5145789418215E-01 -1.9684900620093E-01
50  4.9000000000000E-01  1.3275170592611E+00  4.5608874026660E-01 -1.7787221534292E-01
51  5.0000000000000E-01  1.3262278940152E+00  4.5914519317661E-01 -1.5525670351871E-01
52  5.1000000000000E-01  1.3239889817822E+00  4.6084030503941E-01 -1.2931404872064E-01
53  5.2000000000000E-01  1.3206931663181E+00  4.6141155211414E-01 -1.0039780118133E-01
54  5.3000000000000E-01  1.3162261104426E+00  4.6111778120254E-01 -6.8899025419880E-02
55  5.4000000000000E-01  1.3104679433859E+00  4.6023585817664E-01 -3.5241355999505E-02
56  5.5000000000000E-01  1.3032950183487E+00  4.5905705806075E-01  1.2437494281823E-04
57  5.6000000000000E-01  1.2945817588478E+00  4.5788323954272E-01  3.6725874696832E-02
58  5.7000000000000E-01  1.2842025711264E+00  4.5702284971268E-01  7.4075422915943E-02
59  5.8000000000000E-01  1.2720337988900E+00  4.5678680719760E-01  1.1167612780595E-01
60  5.9000000000000E-01  1.2579556959096E+00  4.5748431364256E-01  1.4902832965418E-01
61  6.0000000000000E-01  1.2418543916241E+00  4.5941864465379E-01  1.8563607347671E-01
62  6.1000000000000E-01  1.2236238247771E+00  4.6288297184814E-01  2.2101357119933E-01
63  6.2000000000000E-01  1.2031676203558E+00  4.6815626753303E-01  2.5469157340586E-01
64  6.3000000000000E-01  1.1804008856401E+00  4.7549934277342E-01  2.8622357128903E-01
65  6.4000000000000E-01  1.1552519020426E+00  4.8515106818341E-01  3.1519175104024E-01
66  6.5000000000000E-01  1.1276636905850E+00  4.9732482473793E-01  3.4121262548239E-01
67  6.6000000000000E-01  1.0975954303272E+00  5.1220522924308E-01  3.6394227128058E-01
68  6.7000000000000E-01  1.0650237108021E+00  5.2994517587888E-01  3.8308110449964E-01
69  6.8000000000000E-01  1.0299436015086E+00  5.5066323146045E-01  3.9837813258498E-01
70  6.9000000000000E-01  9.9236952373849E-01  5.7444141781586E-01  4.0963462694130E-01
71  7.0000000000000E-01  9.5233591243542E-01  6.0132340999481E-01  4.1670716711429E-01
72  7.1000000000000E-01  9.0989765837711E-01  6.3131317396791E-01  4.1951001505273E-01
73  7.2000000000000E-01  8.6513032369371E-01  6.6437406212201E-01  4.1801678594650E-01
74  7.3000000000000E-01  8.1813012655340E-01  7.0042837926728E-01  4.1226139060762E-01
75  7.4000000000000E-01  7.6901369371911E-01  7.3935742613121E-01  4.0233823316802E-01
76  7.5000000000000E-01  7.1791758256961E-01  7.8100202149354E-01  3.8840165690761E-01
77  7.6000000000000E-01  6.6499757704143E-01  8.2516349829967E-01  3.7066464017593E-01
78  7.7000000000000E-01  6.1042776474590E-01  8.7160516335580E-01  3.4939675351683E-01
79  7.8000000000000E-01  5.5439940520791E-01  9.2005420463470E-01  3.2492139813130E-01
80  7.9000000000000E-01  4.9711960172063E-01  9.7020402488625E-01  2.9761235460059E-01
81  8.0000000000000E-01  4.3880979167892E-01  1.0217169752182E+00  2.6788967923662E-01
82  8.1000000000000E-01  3.7970407240615E-01  1.0742274576671E+00  2.3621499341053E-01
83  8.2000000000000E-01  3.2004738140018E-01  1.1273453615644E+00  2.0308621865517E-01
84  8.3000000000000E-01  2.6009355156030E-01  1.1806597947909E+00  1.6903181712921E-01
85  8.4000000000000E-01  2.0010326330286E-01  1.2337430678290E+00  1.3460460311444E-01
86  8.5000000000000E-01  1.4034191650768E-01  1.2861548859243E+00  1.0037519651019E-01
87  8.6000000000000E-01  8.1077445947507E-02  1.3374467026649E+00  6.6925193736699E-02
88  8.7000000000000E-01  2.2578104237313E-02  1.3871661869091E+00  3.4840135035216E-02
89  8.8000000000000E-01 -3.4889763610928E-02  1.4348617542348E+00  4.7023498011411E-03
90  8.9000000000000E-01 -9.1063930213037E-02  1.4800871139509E+00 -2.2916236670430E-02
91  9.0000000000000E-01 -1.4568845719296E-01  1.5224057831775E+00 -4.7461250844271E-02
92  9.1000000000000E-01 -1.9851580558076E-01  1.5613955205493E+00 -6.8402888924480E-02
93  9.2000000000000E-01 -2.4930886405466E-01  1.5966526336804E+00 -8.5242722051453E-02
94  9.3000000000000E-01 -2.9784287526806E-01  1.6277961166107E+00 -9.7520207443491E-02
95  9.4000000000000E-01 -3.4390724213499E-01  1.6544715759683E+00 -1.0481882683269E-01
96  9.5000000000000E-01 -3.8730719776149E-01  1.6763549074768E+00 -1.0677177690350E-01
97  9.6000000000000E-01 -4.2786532467304E-01  1.6931556876405E+00 -1.0306714048823E-01
98  9.7000000000000E-01 -4.6542291104430E-01  1.7046202488708E+00 -9.3452471906051E-02
99  9.8000000000000E-01 -4.9984113376189E-01  1.7105344099177E+00 -7.7738735028080E-02
100  9.9000000000000E-01 -5.3100206028167E-01  1.7107258371485E+00 -5.5803538301924E-02
101  1.0000000000000E+00 -5.5880946334714E-01  1.7050660159033E+00 -2.7593617042104E-02
102  1.0100000000000E+00 -5.8318944466688E-01  1.6934718147899E+00  6.8734802764634E-03
103  1.0200000000000E+00 -6.0409086556931E-01  1.6759066292873E+00  4.7508538225179E-02
104  1.0300000000000E+00 -6.2148558441967E-01  1.6523810943501E+00  9.4150682590101E-02
105  1.0400000000000E+00 -6.3536850217910E-01  1.6229533588229E+00  1.4656827259360E-01
106  1.0500000000000E+00 -6.4575741886644E-01  1.5877289173241E+00  2.0446069159933E-01
107  1.0600000000000E+00 -6.5269270484771E-01  1.5468599978594E+00  2.6746104268078E-01
108  1.0700000000000E+00 -6.5623679181150E-01  1.5005445057705E+00  3.3513974691550E-01
109  1.0800000000000E+00 -6.5647348898970E-01  1.4490245267443E+00  4.0700903319595E-01
110  1.0900000000000E+00 -6.5350713067406E-01  1.3925843935641E+00  4.8252829850148E-01
111  1.1000000000000E+00 -6.4746156137736E-01  1.3315483231533E+00  5.6111030679821E-01
112  1.1100000000000E+00 -6.3847896514129E-01  1.2662776323623E+00  6.4212818274845E-01
113  1.1200000000000E+00 -6.2671854555294E-01  1.1971675430250E+00  7.2492314287771E-01
114  1.1300000000000E+00 -6.1235506307131E-01  1.1246435892343E+00  8.0881289149758E-01
115  1.1400000000000E+00 -5.9557723637817E-01  1.0491576427992E+00  8.9310059092178E-01
116  1.1500000000000E+00 -5.7658601475544E-01  9.7118357666801E-01  9.7708429509794E-01
117  1.1600000000000E+00 -5.5559272909459E-01  8.9121259108308E-01  1.0600667118452E+00
118  1.1700000000000E+00 -5.3281713019856E-01  8.0974823365795E-01  1.1413651311768E+00
119  1.1800000000000E+00 -5.0848532473370E-01  7.2730115289692E-01  1.2203213246201E+00
120  1.1900000000000E+00 -4.8282762170767E-01  6.4438363528077E-01  1.2963111826052E+00
121  1.2000000000000E+00 -4.5607630592174E-01  5.6150398945830E-01  1.3687538128017E+00
122  1.2100000000000E+00 -4.2846335973539E-01  4.7916085789216E-01  1.4371197707628E+00
123  1.2200000000000E+00 -4.0021816090192E-01  3.9783755693083E-01  1.5009380348545E+00
124  1.2300000000000E+00 -3.7156519261727E-01  3.1799657174914E-01  1.5598012681047E+00
125  1.2400000000000E+00 -3.4272181244122E-01  2.4007436315348E-01  1.6133688304085E+00
126  1.2500000000000E+00 -3.1389613991784E-01  1.6447668011439E-01  1.6613669130178E+00
127  1.2600000000000E+00 -2.8528513891942E-01  9.1574615825319E-02  1.7035850623692E+00
128  1.2700000000000E+00 -2.5707299025306E-01  2.1701696645475E-02  1.7398682413851E+00
129  1.2800000000000E+00 -2.2942987379870E-01 -4.4847645385006E-02  1.7701034363202E+00
130  1.2900000000000E+00 -2.0251130799720E-01 -1.0781779307536E-01  1.7941996516232E+00
131  1.3000000000000E+00 -1.7645821636456E-01 -1.6698938765845E-01  1.8120602763486E+00
132  1.3100000000000E+00 -1.5139786344218E-01 -2.2217412948523E-01  1.8235488852046E+00
133  1.3200000000000E+00 -1.2744366105631E-01 -2.7321337398324E-01  1.8285128328727E+00
134  1.3300000000000E+00 -1.0469349703254E-01 -3.1998237055718E-01  1.8268483125102E+00
135  1.3400000000000E+00 -8.3229431646356E-02 -3.6239107085662E-01  1.8185105672967E+00
136  1.3500000000000E+00 -6.3117825334395E-02 -4.0038379692453E-01  1.8035132653018E+00
137  1.3600000000000E+00 -4.4409611142392E-02 -4.3393859650878E-01  1.7819274222444E+00
138  1.3700000000000E+00 -2.7140707031523E-02 -4.6306628992787E-01  1.7538797677738E+00
139  1.3800000000000E+00 -1.1332556922747E-02 -4.8780923130155E-01  1.7195506107233E+00
140  1.3900000000000E+00  3.0072108444069E-03 -5.0823980667749E-01  1.6791712302337E+00
141  1.4000000000000E+00  1.5884020074760E-02 -5.2445869423638E-01  1.6330208292005E+00
142  1.4100000000000E+00  2.7315491542943E-02 -5.3659291370222E-01  1.5814230907644E+00
143  1.4200000000000E+00  3.7330509893860E-02 -5.4479369352905E-01  1.5247423815629E+00
144  1.4300000000000E+00  4.5968226821509E-02 -5.4923418553727E-01  1.4633796482433E+00
145  1.4400000000000E+00  5.3277014916284E-02 -5.5010705736170E-01  1.3977680558851E+00
146  1.4500000000000E+00  5.9313386558353E-02 -5.4762199334678E-01  1.3283684183874E+00
147  1.4600000000000E+00  6.4140892029194E-02 -5.4200313439970E-01  1.2556644716929E+00
148  1.4700000000000E+00  6.7829010648563E-02 -5.3348648687183E-01  1.1801580411939E+00
149  1.4800000000000E+00  7.0452048180652E-02 -5.2231732965289E-01  1.1023641541446E+00
150  1.4900000000000E+00  7.2088053049823E-02 -5.0874764749112E-01  1.0228061470761E+00
151  1.5000000000000E+00  7.2817763078194E-02 -4.9303361711928E-01  9.4201081700494E-01
152  1.5100000000000E+00  7.2723593458841E-02 -4.7543317091935E-01  8.6050366295830E-01
153  1.5200000000000E+00  7.1888675633302E-02 -4.5620366094484E-01  7.7880426235130E-01
154  1.5300000000000E+00  7.0395955559134E-02 -4.3559964384692E-01  6.9742182371412E-01
155  1.5400000000000E+00  6.8327358640723E-02 -4.1387080491955E-01  6.1685095432447E-01
156  1.5500000000000E+00  6.5763027296294E-02 -3.9126003689568E-01  5.3756767756148E-01
157  1.5600000000000E+00  6.2780635871396E-02 -3.6800168664170E-01  4.6002573152206E-01
158  1.5700000000000E+00  5.9454786259968E-02 -3.4431998012788E-01  3.8465317608980E-01
159  1.5800000000000E+00  5.5856486297150E-02 -3.2042763338469E-01  3.1184933158866E-01
160  1.5900000000000E+00  5.2052711778787E-02 -2.9652465466965E-01  2.4198206851894E-01
161  1.6000000000000E+00  4.8106051661093E-02 -2.7279734024388E-01  1.7538546282906E-01
162  1.6100000000000E+00  4.4074434901142E-02 -2.4941746383251E-01  1.1235782754699E-01
163  1.6200000000000E+00  4.0010936299277E-02 -2.2654165739541E-01  5.3160127165782E-02
164  1.6300000000000E+00  3.5963657743228E-02 -2.0431097866579E-01 -1.9852227234687E-03
165  1.6400000000000E+00  3.1975680344435E-02 -1.8285065878024E-01 -5.2895172248420E-02
166  1.6500000000000E+00  2.8085082225939E-02 -1.6227002156203E-01 -9.9426475693700E-02
167  1.6600000000000E+00  2.4325016073189E-02 -1.4266256437137E-01 -1.4147576030139E-01
168  1.6700000000000E+00  2.0723840010803E-02 -1.2410618894758E-01 -1.7897923767996E-01
169  1.6800000000000E+00  1.7305295027196E-02 -1.0666356962697E-01 -2.1191207269533E-01
170  1.6900000000000E+00  1.4088721869388E-02 -9.0382645288432E-02 -2.4028742771792E-01
171  1.7000000000000E+00  1.1089310227754E-02 -7.5297220773703E-02 -2.6415520227396E-01
172  1.7100000000000E+00  8.3183729960872E-03 -6.1427663019246E-02 -2.8360049039942E-01
173  1.7200000000000E+00  5.7836385316041E-03 -4.8781677002835E-02 -2.9874177954222E-01
174  1.7300000000000E+00  3.4895540604069E-03 -3.7355146620397E-02 -3.0972891629126E-01
175  1.7400000000000E+00  1.4375936788449E-03 -2.7133025784861E-02 -3.1674086543991E-01
176  1.7500000000000E+00 -3.7343514234875E-04 -1.8090265561198E-02 -3.1998328941654E-01
177  1.7600000000000E+00 -1.9470921427357E-03 -1.0192763757098E-02 -3.1968597558978E-01
178  1.7700000000000E+00 -3.2890169916602E-03 -3.3983240891231E-03 -3.1610013928793E-01
179  1.7800000000000E+00 -4.4066585157009E-03  2.3423869408535E-03 -3.0949562998837E-01
180  1.7900000000000E+00 -5.3090241326860E-03  7.0848963015826E-03 -3.0015806776571E-01
181  1.8000000000000E+00 -6.0064526048926E-03  1.0890003839167E-02 -2.8838593714451E-01
182  1.8100000000000E+00 -6.5104119549707E-03  1.3822892327721E-02 -2.7448766158419E-01
183  1.8200000000000E+00 -6.8333249737915E-03  1.5952277634945E-02 -2.5877868815479E-01
184  1.8300000000000E+00 -6.9884233371507E-03  1.7349605517873E-02 -2.4157860685717E-01
185  1.8400000000000E+00 -6.9896259783705E-03  1.8088288876247E-02 -2.2320830148921E-01
186  1.8500000000000E+00 -6.8514512552792E-03  1.8243013643292E-02 -2.0398720898211E-01
187  1.8600000000000E+00 -6.5889505877912E-03  1.7889088358856E-02 -1.8423064362514E-01
188  1.8700000000000E+00 -6.2176518958864E-03  1.7101824687138E-02 -1.6424720619032E-01
189  1.8800000000000E+00 -5.7536867592859E-03  1.5956271178346E-02 -1.4433666879734E-01
190  1.8900000000000E+00 -5.2133464692066E-03  1.4525920209776E-02 -1.2478672073480E-01
191  1.9000000000000E+00 -4.6138083178774E-03  1.2883578255363E-02 -1.0587235292326E-01
192  1.9100000000000E+00 -3.9842227053881E-03  1.1121328091466E-02 -8.7877935152159E-02
193  1.9200000000000E+00 -3.3599153296318E-03  9.3395257804164E-03 -7.1082818619125E-02
194  1.9300000000000E+00 -2.7492957064536E-03  7.5856197437314E-03 -5.5687698365954E-02
195  1.9400000000000E+00 -2.1629405328654E-03  5.9071627343935E-03 -4.1876060650330E-02
196  1.9500000000000E+00 -1.6133465526142E-03  4.3510906896823E-03 -2.9812327946697E-02
197  1.9600000000000E+00 -1.1151214753182E-03  2.9638436932399E-03 -1.9641152986184E-02
198  1.9700000000000E+00 -6.8522205365355E-04  1.7917447781046E-03 -1.1489566054222E-02
199  1.9800000000000E+00 -3.4117333825873E-04  8.7652200527030E-04 -5.4414934979256E-03
200  1.9900000000000E+00 -1.0687740311726E-04  2.6933573201127E-04 -1.6172766248025E-03
201  2.0000000000000E+00 -6.9572133934577E-06  1.7013442997847E-05 -9.6081961518787E-05
202  2.0100000000000E+00  3.8322422062561E-06 -9.4478259693057E-06  5.4969419716412E-05
203  2.0200000000000E+00 -1.6311463910826E-06  4.0687056621100E-06 -2.4090052809060E-05
204  2.03  0. -0.  0.
205  2.04  0. -0.  0.
206  2.05  0. -0.  0.
207  2.06  0.  0.  0.
208  2.07  0.  0.  0.
209  2.08  0.  0.  0.
210  2.09  0.  0.  0.
211  2.10  0.  0.  0.
212  2.11  0.  0.  0.
213  2.12  0.  0.  0.
214  2.13  0.  0.  0.
215  2.14  0.  0.  0.
216  2.15  0.  0.  0.
217  2.16  0.  0.  0.
218  2.17  0.  0.  0.
219  2.18  0.  0.  0.
220  2.19  0.  0.  0.
221  2.20  0.  0.  0.
222  2.21  0.  0.  0.
223  2.22  0.  0.  0.
224  2.23  0.  0.  0.
225  2.24  0.  0.  0.
226  2.25  0.  0.  0.
227  2.26  0.  0.  0.
228  2.27  0.  0.  0.
229  2.28  0.  0.  0.
230  2.29  0.  0.  0.
231  2.30  0.  0.  0.
232  2.31  0.  0.  0.
233  2.32  0.  0.  0.
234  2.33  0.  0.  0.
235  2.34  0.  0.  0.
236  2.35  0.  0.  0.
237  2.36  0.  0.  0.
238  2.37  0.  0.  0.
239  2.38  0.  0.  0.
240  2.39  0.  0.  0.
241  2.40  0.  0.  0.
242  2.41  0.  0.  0.
243  2.42  0.  0.  0.
244  2.43  0.  0.  0.
245  2.44  0.  0.  0.
246  2.45  0.  0.  0.
247  2.46  0.  0.  0.
248  2.47  0.  0.  0.
249  2.48  0.  0.  0.
250  2.49  0.  0.  0.
251  2.50  0.  0.  0.
252  2.51  0.  0.  0.
253  2.52  0.  0.  0.
254  2.53  0.  0.  0.
255  2.54  0.  0.  0.
256  2.55  0.  0.  0.
257  2.56  0.  0.  0.
258  2.57  0.  0.  0.
259  2.58  0.  0.  0.
260  2.59  0.  0.  0.
261  2.60  0.  0.  0.
262  2.61  0.  0.  0.
263  2.62  0.  0.  0.
264  2.63  0.  0.  0.
265  2.64  0.  0.  0.
266  2.65  0.  0.  0.
267  2.66  0.  0.  0.
268  2.67  0.  0.  0.
269  2.68  0.  0.  0.
270  2.69  0.  0.  0.
271  2.70  0.  0.  0.
272  2.71  0.  0.  0.
273  2.72  0.  0.  0.
274  2.73  0.  0.  0.
275  2.74  0.  0.  0.
276  2.75  0.  0.  0.
277  2.76  0.  0.  0.
278  2.77  0.  0.  0.
279  2.78  0.  0.  0.
280  2.79  0.  0.  0.
281  2.80  0.  0.  0.
282  2.81  0.  0.  0.
283  2.82  0.  0.  0.
284  2.83  0.  0.  0.
285  2.84  0.  0.  0.
286  2.85  0.  0.  0.
287  2.86  0.  0.  0.
288  2.87  0.  0.  0.
289  2.88  0.  0.  0.
290  2.89  0.  0.  0.
291  2.90  0.  0.  0.
292  2.91  0.  0.  0.
293  2.92  0.  0.  0.
294  2.93  0.  0.  0.
295  2.94  0.  0.  0.
296  2.95  0.  0.  0.
297  2.96  0.  0.  0.
298  2.97  0.  0.  0.
299  2.98  0.  0.  0.
300  2.99  0.  0.  0.
301  3.00  0.  0.  0.
302  3.01  0.  0.  0.
303  3.02  0.  0.  0.
304  3.03  0.  0.  0.
305  3.04  0.  0.  0.
306  3.05  0.  0.  0.
307  3.06  0.  0.  0.
308  3.07  0.  0.  0.
309  3.08  0.  0.  0.
310  3.09  0.  0.  0.
311  3.10  0.  0.  0.
312  3.11  0.  0.  0.
313  3.12  0.  0.  0.
314  3.13  0.  0.  0.
315  3.14  0.  0.  0.
316  3.15  0.  0.  0.
317  3.16  0.  0.  0.
318  3.17  0.  0.  0.
319  3.18  0.  0.  0.
320  3.19  0.  0.  0.
321  3.20  0.  0.  0.
322  3.21  0.  0.  0.
323  3.22  0.  0.  0.
324  3.23  0.  0.  0.
325  3.24  0.  0.  0.
326  3.25  0.  0.  0.
327  3.26  0.  0.  0.
328  3.27  0.  0.  0.
329  3.28  0.  0.  0.
330  3.29  0.  0.  0.
331  3.30  0.  0.  0.
332  3.31  0.  0.  0.
333  3.32  0.  0.  0.
334  3.33  0.  0.  0.
335  3.34  0.  0.  0.
336  3.35  0.  0.  0.
337  3.36  0.  0.  0.
338  3.37  0.  0.  0.
339  3.38  0.  0.  0.
340  3.39  0.  0.  0.
341  3.40  0.  0.  0.
342  3.41  0.  0.  0.
343  3.42  0.  0.  0.
344  3.43  0.  0.  0.
345  3.44  0.  0.  0.
346  3.45  0.  0.  0.
347  3.46  0.  0.  0.
348  3.47  0.  0.  0.
349  3.48  0.  0.  0.
350  3.49  0.  0.  0.
351  3.50  0.  0.  0.
352  3.51  0.  0.  0.
353  3.52  0.  0.  0.
354  3.53  0.  0.  0.
355  3.54  0.  0.  0.
356  3.55  0.  0.  0.
357  3.56  0.  0.  0.
358  3.57  0.  0.  0.
359  3.58  0.  0.  0.
360  3.59  0.  0.  0.
361  3.60  0.  0.  0.
362  3.61  0.  0.  0.
363  3.62  0.  0.  0.
364  3.63  0.  0.  0.
365  3.64  0.  0.  0.
366  3.65  0.  0.  0.
367  3.66  0.  0.  0.
368  3.67  0.  0.  0.
369  3.68  0.  0.  0.
370  3.69  0.  0.  0.
371  3.70  0.  0.  0.
372  3.71  0.  0.  0.
373  3.72  0.  0.  0.
374  3.73  0.  0.  0.
375  3.74  0.  0.  0.
376  3.75  0.  0.  0.
377  3.76  0.  0.  0.
378  3.77  0.  0.  0.
379  3.78  0.  0.  0.
380  3.79  0.  0.  0.
381  3.80  0.  0.  0.
382  3.81  0.  0.  0.
383  3.82  0.  0.  0.
384  3.83  0.  0.  0.
385  3.84  0.  0.  0.
386  3.85  0.  0.  0.
387  3.86  0.  0.  0.
388  3.87  0.  0.  0.
389  3.88  0.  0.  0.
390  3.89  0.  0.  0.
391  3.90  0.  0.  0.
392  3.91  0.  0.  0.
393  3.92  0.  0.  0.
394  3.93  0.  0.  0.
395  3.94  0.  0.  0.
396  3.95  0.  0.  0.
397  3.96  0.  0.  0.
398  3.97  0.  0.  0.
399  3.98  0.  0.  0.
400  3.99  0.  0.  0.
401  4.00  0.  0.  0.
402  4.01  0.  0.  0.
403  4.02  0.  0.  0.
404  4.03  0.  0.  0.
405  4.04  0.  0.  0.
406  4.05  0.  0.  0.
407  4.06  0.  0.  0.
408  4.07  0.  0.  0.
409  4.08  0.  0.  0.
410  4.09  0.  0.  0.
411  4.10  0.  0.  0.
412  4.11  0.  0.  0.
413  4.12  0.  0.  0.
414  4.13  0.  0.  0.
415  4.14  0.  0.  0.
416  4.15  0.  0.  0.
417  4.16  0.  0.  0.
418  4.17  0.  0.  0.
419  4.18  0.  0.  0.
420  4.19  0.  0.  0.
421  4.20  0.  0.  0.
422  4.21  0.  0.  0.
423  4.22  0.  0.  0.
424  4.23  0.  0.  0.
425  4.24  0.  0.  0.
426  4.25  0.  0.  0.
427  4.26  0.  0.  0.
428  4.27  0.  0.  0.
429  4.28  0.  0.  0.
430  4.29  0.  0.  0.
431  4.30  0.  0.  0.
432  4.31  0.  0.  0.
433  4.32  0.  0.  0.
434  4.33  0.  0.  0.
435  4.34  0.  0.  0.
436  4.35  0.  0.  0.
437  4.36  0.  0.  0.
438  4.37  0.  0.  0.
439  4.38  0.  0.  0.
440  4.39  0.  0.  0.
441  4.40  0.  0.  0.
442  4.41  0.  0.  0.
443  4.42  0.  0.  0.
444  4.43  0.  0.  0.
445  4.44  0.  0.  0.
446  4.45  0.  0.  0.
447  4.46  0.  0.  0.
448  4.47  0.  0.  0.
449  4.48  0.  0.  0.
450  4.49  0.  0.  0.
451  4.50  0.  0.  0.
452  4.51  0.  0.  0.
453  4.52  0.  0.  0.
454  4.53  0.  0.  0.
455  4.54  0.  0.  0.
456  4.55  0.  0.  0.
457  4.56  0.  0.  0.
458  4.57  0.  0.  0.
459  4.58  0.  0.  0.
460  4.59  0.  0.  0.
461  4.60  0.  0.  0.
462  4.61  0.  0.  0.
463  4.62  0.  0.  0.
464  4.63  0.  0.  0.
465  4.64  0.  0.  0.
466  4.65  0.  0.  0.
467  4.66  0.  0.  0.
468  4.67  0.  0.  0.
469  4.68  0.  0.  0.
470  4.69  0.  0.  0.
471  4.70  0.  0.  0.
472  4.71  0.  0.  0.
473  4.72  0.  0.  0.
474  4.73  0.  0.  0.
475  4.74  0.  0.  0.
476  4.75  0.  0.  0.
477  4.76  0.  0.  0.
478  4.77  0.  0.  0.
479  4.78  0.  0.  0.
480  4.79  0.  0.  0.
481  4.80  0.  0.  0.
482  4.81  0.  0.  0.
483  4.82  0.  0.  0.
484  4.83  0.  0.  0.
485  4.84  0.  0.  0.
486  4.85  0.  0.  0.
487  4.86  0.  0.  0.
488  4.87  0.  0.  0.
489  4.88  0.  0.  0.
490  4.89  0.  0.  0.
491  4.90  0.  0.  0.
492  4.91  0.  0.  0.
493  4.92  0.  0.  0.
494  4.93  0.  0.  0.
495  4.94  0.  0.  0.
496  4.95  0.  0.  0.
497  4.96  0.  0.  0.
498  4.97  0.  0.  0.
499  4.98  0.  0.  0.
500  4.99  0.  0.  0.
501  5.00  0.  0.  0.
502  5.01  0.  0.  0.
503  5.02  0.  0.  0.
504  5.03  0.  0.  0.
505  5.04  0.  0.  0.
506  5.05  0.  0.  0.
507  5.06  0.  0.  0.
508  5.07  0.  0.  0.
509  5.08  0.  0.  0.
510  5.09  0.  0.  0.
511  5.10  0.  0.  0.
512  5.11  0.  0.  0.
513  5.12  0.  0.  0.
514  5.13  0.  0.  0.
515  5.14  0.  0.  0.
516  5.15  0.  0.  0.
517  5.16  0.  0.  0.
518  5.17  0.  0.  0.
519  5.18  0.  0.  0.
520  5.19  0.  0.  0.
521  5.20  0.  0.  0.
522  5.21  0.  0.  0.
523  5.22  0.  0.  0.
524  5.23  0.  0.  0.
525  5.24  0.  0.  0.
526  5.25  0.  0.  0.
527  5.26  0.  0.  0.
528  5.27  0.  0.  0.
529  5.28  0.  0.  0.
530  5.29  0.  0.  0.
531  5.30  0.  0.  0.
532  5.31  0.  0.  0.
533  5.32  0.  0.  0.
534  5.33  0.  0.  0.
535  5.34  0.  0.  0.
536  5.35  0.  0.  0.
537  5.36  0.  0.  0.
538  5.37  0.  0.  0.
539  5.38  0.  0.  0.
540  5.39  0.  0.  0.
541  5.40  0.  0.  0.
542  5.41  0.  0.  0.
543  5.42  0.  0.  0.
544  5.43  0.  0.  0.
545  5.44  0.  0.  0.
546  5.45  0.  0.  0.
547  5.46  0.  0.  0.
548  5.47  0.  0.  0.
549  5.48  0.  0.  0.
550  5.49  0.  0.  0.
551  5.50  0.  0.  0.
552  5.51  0.  0.  0.
553  5.52  0.  0.  0.
554  5.53  0.  0.  0.
555  5.54  0.  0.  0.
556  5.55  0.  0.  0.
557  5.56  0.  0.  0.
558  5.57  0.  0.  0.
559  5.58  0.  0.  0.
560  5.59  0.  0.  0.
561  5.60  0.  0.  0.
562  5.61  0.  0.  0.
563  5.62  0.  0.  0.
564  5.63  0.  0.  0.
565  5.64  0.  0.  0.
566  5.65  0.  0.  0.
567  5.66  0.  0.  0.
568  5.67  0.  0.  0.
569  5.68  0.  0.  0.
570  5.69  0.  0.  0.
571  5.70  0.  0.  0.
572  5.71  0.  0.  0.
573  5.72  0.  0.  0.
574  5.73  0.  0.  0.
575  5.74  0.  0.  0.
576  5.75  0.  0.  0.
577  5.76  0.  0.  0.
578  5.77  0.  0.  0.
579  5.78  0.  0.  0.
580  5.79  0.  0.  0.
581  5.80  0.  0.  0.
582  5.81  0.  0.  0.
583  5.82  0.  0.  0.
584  5.83  0.  0.  0.
585  5.84  0.  0.  0.
586  5.85  0.  0.  0.
587  5.86  0.  0.  0.
588  5.87  0.  0.  0.
589  5.88  0.  0.  0.
590  5.89  0.  0.  0.
591  5.90  0.  0.  0.
592  5.91  0.  0.  0.
593  5.92  0.  0.  0.
594  5.93  0.  0.  0.
595  5.94  0.  0.  0.
596  5.95  0.  0.  0.
597  5.96  0.  0.  0.
598  5.97  0.  0.  0.
599  5.98  0.  0.  0.
600  5.99  0.  0.  0.
1                         7.4823309908041E+00  8.2969292390340E-01
1  0.0000000000000E+00  6.4394591048345E-10 -3.1686597234959E-09
2  1.0000000000000E-02  1.1250909724689E-03 -9.4527297673070E-04
3  2.0000000000000E-02  4.4961983092006E-03 -3.7712227555028E-03
4  3.0000000000000E-02  1.0100854200859E-02 -8.4483671056499E-03
5  4.0000000000000E-02  1.7918375042786E-02 -1.4927984602352E-02
6  5.0000000000000E-02  2.7920004280251E-02 -2.3142731841570E-02
7  6.0000000000000E-02  4.0069109869101E-02 -3.3007495183810E-02
8  7.0000000000000E-02  5.4321433874361E-02 -4.4420464882525E-02
9  8.0000000000000E-02  7.0625391085391E-02 -5.7264416284336E-02
10  9.0000000000000E-02  8.8922412928851E-02 -7.1408179839244E-02
11  1.0000000000000E-01  1.0914733241895E-01 -8.6708278972974E-02
12  1.1000000000000E-01  1.3122880540631E-01 -1.0301071248863E-01
13  1.2000000000000E-01  1.5508976297936E-01 -1.2015285611619E-01
14  1.3000000000000E-01  1.8064788954197E-01 -1.3796545614593E-01
15  1.4000000000000E-01  2.0781612084213E-01 -1.5627468679033E-01
16  1.5000000000000E-01  2.3650315606383E-01 -1.7490424203779E-01
17  1.6000000000000E-01  2.6661397801917E-01 -1.9367743230430E-01
18  1.7000000000000E-01  2.9805037549193E-01 -2.1241925616377E-01
19  1.8000000000000E-01  3.3071146188686E-01 -2.3095841784451E-01
20  1.9000000000000E-01  3.6449418452944E-01 -2.4912926201532E-01
21  2.0000000000000E-01  3.9929381923525E-01 -2.6677359863707E-01
22  2.1000000000000E-01  4.3500444512316E-01 -2.8374239230907E-01
23  2.2000000000000E-01  4.7151939507564E-01 -2.9989729257031E-01
24  2.3000000000000E-01  5.0873167774703E-01 -3.1511198399581E-01
25  2.4000000000000E-01  5.4653436757785E-01 -3.2927333762457E-01
26  2.5000000000000E-01  5.8482095988233E-01 -3.4228234822975E-01
27  2.6000000000000E-01  6.2348568872722E-01 -3.5405484515061E-01
28  2.7000000000000E-01  6.6242380600223E-01 -3.6452196780485E-01
29  2.8000000000000E-01  7.0153182078597E-01 -3.7363040053882E-01
30  2.9000000000000E-01  7.4070769882397E-01 -3.8134236510070E-01
31  3.0000000000000E-01  7.7985102264641E-01 -3.8763537268587E-01
32  3.1000000000000E-01  8.1886311355065E-01 -3.9250174114910E-01
33  3.2000000000000E-01  8.5764711734666E-01 -3.9594788655189E-01
34  3.3000000000000E-01  8.9610805640002E-01 -3.9799340166191E-01
35  3.4000000000000E-01  9.3415285109786E-01 -3.9866993729236E-01
36  3.5000000000000E-01  9.7169031439671E-01 -3.9801990541363E-01
37  3.6000000000000E-01  1.0086311235797E+00 -3.9609502574030E-01
38  3.7000000000000E-01  1.0448877737444E+00 -3.9295473995114E-01
39  3.8000000000000E-01  1.0803745178568E+00 -3.8866451979851E-01
40  3.9000000000000E-01  1.1150072984319E+00 -3.8329409707442E-01
41  4.0000000000000E-01  1.1487036760377E+00 -3.7691564469354E-01
42  4.1000000000000E-01  1.1813827598594E+00 -3.6960193900762E-01
43  4.2000000000000E-01  1.2129651455033E+00 -3.6142453386516E-01
44  4.3000000000000E-01  1.2433728650703E+00 -3.5245197686493E-01
45  4.4000000000000E-01  1.2725293542794E+00 -3.4274809772113E-01
46  4.5000000000000E-01  1.3003594410847E+00 -3.3237039766471E-01