Er    ONCVPSP-4.0.1  r_core=   2.00187   1.60440   1.90833   1.40655
68.0000     22.0000      241101    zatom,zion,pspd
8      11   3     4   600     0    pspcod,pspxc,lmax,lloc,mmax,r2well
5.99000000  4.00000000  0.00000000    rchrg fchrg qchrg
2     2     2     2     0    nproj
1     1           extension_switch
0                         7.1691021097992E+00  9.8461156037307E-01
1  0.0000000000000E+00  7.7051587332733E-11 -2.1884061576771E-10
2  1.0000000000000E-02  4.3498533309638E-02 -3.5282078251663E-03
3  2.0000000000000E-02  8.6968752017998E-02 -7.0840487031131E-03
4  3.0000000000000E-02  1.3038218207835E-01 -1.0694631499126E-02
5  4.0000000000000E-02  1.7371003262308E-01 -1.4386022373874E-02
6  5.0000000000000E-02  2.1692304270855E-01 -1.8182737551065E-02
7  6.0000000000000E-02  2.5999133419141E-01 -2.2107252872816E-02
8  7.0000000000000E-02  3.0288427268912E-01 -2.6179535479794E-02
9  8.0000000000000E-02  3.4557033850024E-01 -3.0416602734312E-02
10  9.0000000000000E-02  3.8801700926530E-01 -3.4832113234693E-02
11  1.0000000000000E-01  4.3019065603640E-01 -3.9435994450913E-02
12  1.1000000000000E-01  4.7205645429548E-01 -4.4234111147506E-02
13  1.2000000000000E-01  5.1357831131750E-01 -4.9227978353497E-02
14  1.3000000000000E-01  5.5471881111741E-01 -5.4414522194258E-02
15  1.4000000000000E-01  5.9543917804951E-01 -5.9785891420929E-02
16  1.5000000000000E-01  6.3569925994738E-01 -6.5329321963745E-02
17  1.6000000000000E-01  6.7545753150174E-01 -7.1027056300932E-02
18  1.7000000000000E-01  7.1467111837570E-01 -7.6856318880073E-02
19  1.8000000000000E-01  7.5329584235293E-01 -8.2789348258759E-02
20  1.9000000000000E-01  7.9128628760576E-01 -8.8793486051816E-02
21  2.0000000000000E-01  8.2859588796025E-01 -9.4831322188670E-02
22  2.1000000000000E-01  8.6517703482399E-01 -1.0086089540209E-01
23  2.2000000000000E-01  9.0098120523351E-01 -1.0683594729464E-01
24  2.3000000000000E-01  9.3595910927223E-01 -1.1270622776674E-01
25  2.4000000000000E-01  9.7006085590970E-01 -1.1841784904650E-01
26  2.5000000000000E-01  1.0032361361198E+00 -1.2391368504156E-01
27  2.6000000000000E-01  1.0354344219516E+00 -1.2913381224220E-01
28  2.7000000000000E-01  1.0666051800540E+00 -1.3401598794867E-01
29  2.8000000000000E-01  1.0966980979939E+00 -1.3849616117812E-01
30  2.9000000000000E-01  1.1256633215633E+00 -1.4250901123307E-01
31  3.0000000000000E-01  1.1534517011375E+00 -1.4598850858688E-01
32  3.1000000000000E-01  1.1800150450368E+00 -1.4886849246774E-01
33  3.2000000000000E-01  1.2053063777444E+00 -1.5108325930298E-01
34  3.3000000000000E-01  1.2292802007618E+00 -1.5256815602349E-01
35  3.4000000000000E-01  1.2518927538249E+00 -1.5326017212638E-01
36  3.5000000000000E-01  1.2731022741681E+00 -1.5309852435375E-01
37  3.6000000000000E-01  1.2928692515155E+00 -1.5202522786831E-01
38  3.7000000000000E-01  1.3111566764805E+00 -1.4998564789289E-01
39  3.8000000000000E-01  1.3279302800913E+00 -1.4692902593060E-01
40  3.9000000000000E-01  1.3431587622094E+00 -1.4280897489515E-01
41  4.0000000000000E-01  1.3568140066834E+00 -1.3758393775468E-01
42  4.1000000000000E-01  1.3688712811769E+00 -1.3121760462654E-01
43  4.2000000000000E-01  1.3793094197238E+00 -1.2367928365042E-01
44  4.3000000000000E-01  1.3881109862014E+00 -1.1494422141264E-01
45  4.4000000000000E-01  1.3952624170664E+00 -1.0499386918810E-01
46  4.5000000000000E-01  1.4007541418696E+00 -9.3816091807090E-02
47  4.6000000000000E-01  1.4045806802543E+00 -8.1405316535067E-02
48  4.7000000000000E-01  1.4067407143438E+00 -6.7762619969997E-02
49  4.8000000000000E-01  1.4072371356404E+00 -5.2895751607661E-02
50  4.9000000000000E-01  1.4060770657802E+00 -3.6819093394950E-02
51  5.0000000000000E-01  1.4032718507259E+00 -1.9553555276841E-02
52  5.1000000000000E-01  1.3988370282153E+00 -1.1264074386202E-03
53  5.2000000000000E-01  1.3927922685322E+00  1.8428949356625E-02
54  5.3000000000000E-01  1.3851612889083E+00  3.9073273241681E-02
55  5.4000000000000E-01  1.3759717421139E+00  6.0761827754648E-02
56  5.5000000000000E-01  1.3652550800346E+00  8.3444781946728E-02
57  5.6000000000000E-01  1.3530463932719E+00  1.0706766001524E-01
58  5.7000000000000E-01  1.3393842280329E+00  1.3157183578762E-01
59  5.8000000000000E-01  1.3243103817947E+00  1.5689506682131E-01
60  5.9000000000000E-01  1.3078696794378E+00  1.8297206237195E-01
61  6.0000000000000E-01  1.2901097317333E+00  2.0973507902288E-01
62  6.1000000000000E-01  1.2710806782499E+00  2.3711453737025E-01
63  6.2000000000000E-01  1.2508349169001E+00  2.6503965282369E-01
64  6.3000000000000E-01  1.2294268224869E+00  2.9343907331822E-01
65  6.4000000000000E-01  1.2069124567289E+00  3.2224151654319E-01
66  6.5000000000000E-01  1.1833492723343E+00  3.5137639918094E-01
67  6.6000000000000E-01  1.1587958137657E+00  3.8077445061499E-01
68  6.7000000000000E-01  1.1333114173819E+00  4.1036830361694E-01
69  6.8000000000000E-01  1.1069559136625E+00  4.4009305465313E-01
70  6.9000000000000E-01  1.0797893342152E+00  4.6988678666733E-01
71  7.0000000000000E-01  1.0518716262310E+00  4.9969104749391E-01
72  7.1000000000000E-01  1.0232623769964E+00  5.2945127743420E-01
73  7.2000000000000E-01  9.9402055098347E-01  5.5911717998688E-01
74  7.3000000000000E-01  9.6420424193102E-01  5.8864303025630E-01
75  7.4000000000000E-01  9.3387044219543E-01  6.1798791616711E-01
76  7.5000000000000E-01  9.0307483148985E-01  6.4711590828534E-01
77  7.6000000000000E-01  8.7187158695223E-01  6.7599615477913E-01
78  7.7000000000000E-01  8.4031321628113E-01  7.0460289884029E-01
79  7.8000000000000E-01  8.0845041545790E-01  7.3291541672485E-01
80  7.9000000000000E-01  7.7633195233728E-01  7.6091787544850E-01
81  8.0000000000000E-01  7.4400457713535E-01  7.8859911008478E-01
82  8.1000000000000E-01  7.1151296057831E-01  8.1595232155063E-01
83  8.2000000000000E-01  6.7889966019827E-01  8.4297469671833E-01
84  8.3000000000000E-01  6.4620511497647E-01  8.6966695365546E-01
85  8.4000000000000E-01  6.1346766824191E-01  8.9603281575721E-01
86  8.5000000000000E-01  5.8072361843618E-01  9.2207841948920E-01
87  8.6000000000000E-01  5.4800729705665E-01  9.4781166139502E-01
88  8.7000000000000E-01  5.1535117279103E-01  9.7324149093317E-01
89  8.8000000000000E-01  4.8278598056016E-01  9.9837715658372E-01
90  8.9000000000000E-01  4.5034087389401E-01  1.0232274134985E+00
91  9.0000000000000E-01  4.1804359878057E-01  1.0477997017518E+00
92  9.1000000000000E-01  3.8592068685104E-01  1.0720993049745E+00
93  9.2000000000000E-01  3.5399766549853E-01  1.0961284998140E+00
94  9.3000000000000E-01  3.2229928227432E-01  1.1198857072547E+00
95  9.4000000000000E-01  2.9084974066634E-01  1.1433646573419E+00
96  9.5000000000000E-01  2.5967294414115E-01  1.1665535792841E+00
97  9.6000000000000E-01  2.2879274512517E-01  1.1894344292453E+00
98  9.7000000000000E-01  1.9823319541415E-01  1.2119821683840E+00
99  9.8000000000000E-01  1.6801879433421E-01  1.2341641038411E+00
100  9.9000000000000E-01  1.3817473083471E-01  1.2559393054182E+00
101  1.0000000000000E+00  1.0872711557376E-01  1.2772581106166E+00
102  1.0100000000000E+00  7.9703198964627E-02  1.2980617305227E+00
103  1.0200000000000E+00  5.1131571086037E-02  1.3182819687177E+00
104  1.0300000000000E+00  2.3042339324629E-02  1.3378410649554E+00
105  1.0400000000000E+00 -4.5327203839611E-03  1.3566516747828E+00
106  1.0500000000000E+00 -3.1560042815646E-02  1.3746169955686E+00
107  1.0600000000000E+00 -5.8004187248100E-02  1.3916310485451E+00
108  1.0700000000000E+00 -8.3827789693963E-02  1.4075791254460E+00
109  1.0800000000000E+00 -1.0899155732984E-01  1.4223384071342E+00
110  1.0900000000000E+00 -1.3345430866157E-01  1.4357787602365E+00
111  1.1000000000000E+00 -1.5717306269814E-01  1.4477637162291E+00
112  1.1100000000000E+00 -1.8010318007616E-01  1.4581516356301E+00
113  1.1200000000000E+00 -2.0219855867663E-01  1.4667970579340E+00
114  1.1300000000000E+00 -2.2341188580142E-01  1.4735522356517E+00
115  1.1400000000000E+00 -2.4369494841457E-01  1.4782688482658E+00
116  1.1500000000000E+00 -2.6299900230232E-01  1.4807998890651E+00
117  1.1600000000000E+00 -2.8127520024636E-01  1.4810017146372E+00
118  1.1700000000000E+00 -2.9847507843658E-01  1.4787362432659E+00
119  1.1800000000000E+00 -3.1455109935102E-01  1.4738732845421E+00
120  1.1900000000000E+00 -3.2945724819856E-01  1.4662929781461E+00
121  1.2000000000000E+00 -3.4314967873491E-01  1.4558883149343E+00
122  1.2100000000000E+00 -3.5558740280941E-01  1.4425677081270E+00
123  1.2200000000000E+00 -3.6673301637740E-01  1.4262575765364E+00
124  1.2300000000000E+00 -3.7655345287762E-01  1.4069048952727E+00
125  1.2400000000000E+00 -3.8502075284610E-01  1.3844796622801E+00
126  1.2500000000000E+00 -3.9211283636762E-01  1.3589772212339E+00
127  1.2600000000000E+00 -3.9781426244792E-01  1.3304203727616E+00
128  1.2700000000000E+00 -4.0211695662288E-01  1.2988611966378E+00
129  1.2800000000000E+00 -4.0502088504678E-01  1.2643824973515E+00
130  1.2900000000000E+00 -4.0653464993433E-01  1.2270987743199E+00
131  1.3000000000000E+00 -4.0667597755073E-01  1.1871566059527E+00
132  1.3100000000000E+00 -4.0547206589229E-01  1.1447343235776E+00
133  1.3200000000000E+00 -4.0295975479784E-01  1.1000408369888E+00
134  1.3300000000000E+00 -3.9918547643967E-01  1.0533134579577E+00
135  1.3400000000000E+00 -3.9420493893630E-01  1.0048145513665E+00
136  1.3500000000000E+00 -3.8808249017307E-01  9.5482682558012E-01
137  1.3600000000000E+00 -3.8089010281467E-01  9.0364705427896E-01
138  1.3700000000000E+00 -3.7270591490876E-01  8.5157800111180E-01
139  1.3800000000000E+00 -3.6361225336124E-01  7.9891829603590E-01
140  1.3900000000000E+00 -3.5369305953162E-01  7.4594998600287E-01
141  1.4000000000000E+00 -3.4303064409361E-01  6.9292354854089E-01
142  1.4100000000000E+00 -3.3170156342382E-01  6.4003940525607E-01
143  1.4200000000000E+00 -3.1977426211176E-01  5.8744114218072E-01
144  1.4300000000000E+00 -3.0731462373950E-01  5.3525282952136E-01
145  1.4400000000000E+00 -2.9438980201185E-01  4.8360283332355E-01
146  1.4500000000000E+00 -2.8106788135487E-01  4.3262271527938E-01
147  1.4600000000000E+00 -2.6741759005252E-01  3.8244650404500E-01
148  1.4700000000000E+00 -2.5350796167417E-01  3.3320969356555E-01
149  1.4800000000000E+00 -2.3940798541104E-01  2.8504820764083E-01
150  1.4900000000000E+00 -2.2518624776746E-01  2.3809733610980E-01
151  1.5000000000000E+00 -2.1091056812403E-01  1.9249064919481E-01
152  1.5100000000000E+00 -1.9664763128880E-01  1.4835889979733E-01
153  1.5200000000000E+00 -1.8246262027603E-01  1.0582892401775E-01
154  1.5300000000000E+00 -1.6841885257992E-01  6.5022550225483E-02
155  1.5400000000000E+00 -1.5457742325367E-01  2.6055527189577E-02
156  1.5500000000000E+00 -1.4099685806424E-01 -1.0963518381697E-02
157  1.5600000000000E+00 -1.2773277999620E-01 -4.5934084451103E-02
158  1.5700000000000E+00 -1.1483759225889E-01 -7.8764746409405E-02
159  1.5800000000000E+00 -1.0236018084572E-01 -1.0937405029402E-01
160  1.5900000000000E+00 -9.0345639609734E-02 -1.3769133696654E-01
161  1.6000000000000E+00 -7.8835020567875E-02 -1.6365748866029E-01
162  1.6100000000000E+00 -6.7865112007284E-02 -1.8722558965524E-01
163  1.6200000000000E+00 -5.7468246714551E-02 -2.0836149367391E-01
164  1.6300000000000E+00 -4.7672142413957E-02 -2.2704429131230E-01
165  1.6400000000000E+00 -3.8499776200689E-02 -2.4326667180125E-01
166  1.6500000000000E+00 -2.9969294485946E-02 -2.5703517421434E-01
167  1.6600000000000E+00 -2.2093959653703E-02 -2.6837032425065E-01
168  1.6700000000000E+00 -1.4882134279678E-02 -2.7730665385358E-01
169  1.6800000000000E+00 -8.3373034593460E-03 -2.8389260185166E-01
170  1.6900000000000E+00 -2.4581354164037E-03 -2.8819029503115E-01
171  1.7000000000000E+00  2.7614197691928E-03 -2.9027521008563E-01
172  1.7100000000000E+00  7.3319938450531E-03 -2.9023571808196E-01
173  1.7200000000000E+00  1.1268627348262E-02 -2.8817251413071E-01
174  1.7300000000000E+00  1.4590561060795E-02 -2.8419793606293E-01
175  1.7400000000000E+00  1.7320993525213E-02 -2.7843517704563E-01
176  1.7500000000000E+00  1.9486806492155E-02 -2.7101739801930E-01
177  1.7600000000000E+00  2.1118260484196E-02 -2.6208674684160E-01
178  1.7700000000000E+00  2.2248662967798E-02 -2.5179329201182E-01
179  1.7800000000000E+00  2.2914011872494E-02 -2.4029387962070E-01
180  1.7900000000000E+00  2.3152617443939E-02 -2.2775092296181E-01
181  1.8000000000000E+00  2.3004705691500E-02 -2.1433113515050E-01
182  1.8100000000000E+00  2.2512006627913E-02 -2.0020421473124E-01
183  1.8200000000000E+00  2.1717331255866E-02 -1.8554149705530E-01
184  1.8300000000000E+00  2.0664141061273E-02 -1.7051458338339E-01
185  1.8400000000000E+00  1.9396111725982E-02 -1.5529395177077E-01
186  1.8500000000000E+00  1.7956699459232E-02 -1.4004757936027E-01
187  1.8600000000000E+00  1.6388708678843E-02 -1.2493956868498E-01
188  1.8700000000000E+00  1.4733869658972E-02 -1.1012880677135E-01
189  1.8800000000000E+00  1.3032412306352E-02 -9.5767619297808E-02
190  1.8900000000000E+00  1.1322710958467E-02 -8.2000626459158E-02
191  1.9000000000000E+00  9.6408346211234E-03 -6.8963357717595E-02
192  1.9100000000000E+00  8.0191769651236E-03 -5.6778276673216E-02
193  1.9200000000000E+00  6.4866918294170E-03 -4.5555257480368E-02
194  1.9300000000000E+00  5.0716479315569E-03 -3.5399176378603E-02
195  1.9400000000000E+00  3.7986095820383E-03 -2.6401527528034E-02
196  1.9500000000000E+00  2.6882346633040E-03 -1.8639753528710E-02
197  1.9600000000000E+00  1.7570645809487E-03 -1.2176575839193E-02
198  1.9700000000000E+00  1.0176175238258E-03 -7.0612762277980E-03
199  1.9800000000000E+00  4.7619415423363E-04 -3.3145754966638E-03
200  1.9900000000000E+00  1.3948379983343E-04 -9.7578729018796E-04
201  2.0000000000000E+00  8.0735523946915E-06 -5.6897120286346E-05
202  2.0100000000000E+00 -4.6545155978426E-06  3.2856935706647E-05
203  2.0200000000000E+00  2.0604180962795E-06 -1.4474987612983E-05
204  2.03 -0.  0.
205  2.04 -0. -0.
206  2.05 -0. -0.
207  2.06  0.  0.
208  2.07  0.  0.
209  2.08  0.  0.
210  2.09  0.  0.
211  2.10  0.  0.
212  2.11  0.  0.
213  2.12  0.  0.
214  2.13  0.  0.
215  2.14  0.  0.
216  2.15  0.  0.
217  2.16  0.  0.
218  2.17  0.  0.
219  2.18  0.  0.
220  2.19  0.  0.
221  2.20  0.  0.
222  2.21  0.  0.
223  2.22  0.  0.
224  2.23  0.  0.
225  2.24  0.  0.
226  2.25  0.  0.
227  2.26  0.  0.
228  2.27  0.  0.
229  2.28  0.  0.
230  2.29  0.  0.
231  2.30  0.  0.
232  2.31  0.  0.
233  2.32  0.  0.
234  2.33  0.  0.
235  2.34  0.  0.
236  2.35  0.  0.
237  2.36  0.  0.
238  2.37  0.  0.
239  2.38  0.  0.
240  2.39  0.  0.
241  2.40  0.  0.
242  2.41  0.  0.
243  2.42  0.  0.
244  2.43  0.  0.
245  2.44  0.  0.
246  2.45  0.  0.
247  2.46  0.  0.
248  2.47  0.  0.
249  2.48  0.  0.
250  2.49  0.  0.
251  2.50  0.  0.
252  2.51  0.  0.
253  2.52  0.  0.
254  2.53  0.  0.
255  2.54  0.  0.
256  2.55  0.  0.
257  2.56  0.  0.
258  2.57  0.  0.
259  2.58  0.  0.
260  2.59  0.  0.
261  2.60  0.  0.
262  2.61  0.  0.
263  2.62  0.  0.
264  2.63  0.  0.
265  2.64  0.  0.
266  2.65  0.  0.
267  2.66  0.  0.
268  2.67  0.  0.
269  2.68  0.  0.
270  2.69  0.  0.
271  2.70  0.  0.
272  2.71  0.  0.
273  2.72  0.  0.
274  2.73  0.  0.
275  2.74  0.  0.
276  2.75  0.  0.
277  2.76  0.  0.
278  2.77  0.  0.
279  2.78  0.  0.
280  2.79  0.  0.
281  2.80  0.  0.
282  2.81  0.  0.
283  2.82  0.  0.
284  2.83  0.  0.
285  2.84  0.  0.
286  2.85  0.  0.
287  2.86  0.  0.
288  2.87  0.  0.
289  2.88  0.  0.
290  2.89  0.  0.
291  2.90  0.  0.
292  2.91  0.  0.
293  2.92  0.  0.
294  2.93  0.  0.
295  2.94  0.  0.
296  2.95  0.  0.
297  2.96  0.  0.
298  2.97  0.  0.
299  2.98  0.  0.
300  2.99  0.  0.
301  3.00  0.  0.
302  3.01  0.  0.
303  3.02  0.  0.
304  3.03  0.  0.
305  3.04  0.  0.
306  3.05  0.  0.
307  3.06  0.  0.
308  3.07  0.  0.
309  3.08  0.  0.
310  3.09  0.  0.
311  3.10  0.  0.
312  3.11  0.  0.
313  3.12  0.  0.
314  3.13  0.  0.
315  3.14  0.  0.
316  3.15  0.  0.
317  3.16  0.  0.
318  3.17  0.  0.
319  3.18  0.  0.
320  3.19  0.  0.
321  3.20  0.  0.
322  3.21  0.  0.
323  3.22  0.  0.
324  3.23  0.  0.
325  3.24  0.  0.
326  3.25  0.  0.
327  3.26  0.  0.
328  3.27  0.  0.
329  3.28  0.  0.
330  3.29  0.  0.
331  3.30  0.  0.
332  3.31  0.  0.
333  3.32  0.  0.
334  3.33  0.  0.
335  3.34  0.  0.
336  3.35  0.  0.
337  3.36  0.  0.
338  3.37  0.  0.
339  3.38  0.  0.
340  3.39  0.  0.
341  3.40  0.  0.
342  3.41  0.  0.
343  3.42  0.  0.
344  3.43  0.  0.
345  3.44  0.  0.
346  3.45  0.  0.
347  3.46  0.  0.
348  3.47  0.  0.
349  3.48  0.  0.
350  3.49  0.  0.
351  3.50  0.  0.
352  3.51  0.  0.
353  3.52  0.  0.
354  3.53  0.  0.
355  3.54  0.  0.
356  3.55  0.  0.
357  3.56  0.  0.
358  3.57  0.  0.
359  3.58  0.  0.
360  3.59  0.  0.
361  3.60  0.  0.
362  3.61  0.  0.
363  3.62  0.  0.
364  3.63  0.  0.
365  3.64  0.  0.
366  3.65  0.  0.
367  3.66  0.  0.
368  3.67  0.  0.
369  3.68  0.  0.
370  3.69  0.  0.
371  3.70  0.  0.
372  3.71  0.  0.
373  3.72  0.  0.
374  3.73  0.  0.
375  3.74  0.  0.
376  3.75  0.  0.
377  3.76  0.  0.
378  3.77  0.  0.
379  3.78  0.  0.
380  3.79  0.  0.
381  3.80  0.  0.
382  3.81  0.  0.
383  3.82  0.  0.
384  3.83  0.  0.
385  3.84  0.  0.
386  3.85  0.  0.
387  3.86  0.  0.
388  3.87  0.  0.
389  3.88  0.  0.
390  3.89  0.  0.
391  3.90  0.  0.
392  3.91  0.  0.
393  3.92  0.  0.
394  3.93  0.  0.
395  3.94  0.  0.
396  3.95  0.  0.
397  3.96  0.  0.
398  3.97  0.  0.
399  3.98  0.  0.
400  3.99  0.  0.
401  4.00  0.  0.
402  4.01  0.  0.
403  4.02  0.  0.
404  4.03  0.  0.
405  4.04  0.  0.
406  4.05  0.  0.
407  4.06  0.  0.
408  4.07  0.  0.
409  4.08  0.  0.
410  4.09  0.  0.
411  4.10  0.  0.
412  4.11  0.  0.
413  4.12  0.  0.
414  4.13  0.  0.
415  4.14  0.  0.
416  4.15  0.  0.
417  4.16  0.  0.
418  4.17  0.  0.
419  4.18  0.  0.
420  4.19  0.  0.
421  4.20  0.  0.
422  4.21  0.  0.
423  4.22  0.  0.
424  4.23  0.  0.
425  4.24  0.  0.
426  4.25  0.  0.
427  4.26  0.  0.
428  4.27  0.  0.
429  4.28  0.  0.
430  4.29  0.  0.
431  4.30  0.  0.
432  4.31  0.  0.
433  4.32  0.  0.
434  4.33  0.  0.
435  4.34  0.  0.
436  4.35  0.  0.
437  4.36  0.  0.
438  4.37  0.  0.
439  4.38  0.  0.
440  4.39  0.  0.
441  4.40  0.  0.
442  4.41  0.  0.
443  4.42  0.  0.
444  4.43  0.  0.
445  4.44  0.  0.
446  4.45  0.  0.
447  4.46  0.  0.
448  4.47  0.  0.
449  4.48  0.  0.
450  4.49  0.  0.
451  4.50  0.  0.
452  4.51  0.  0.
453  4.52  0.  0.
454  4.53  0.  0.
455  4.54  0.  0.
456  4.55  0.  0.
457  4.56  0.  0.
458  4.57  0.  0.
459  4.58  0.  0.
460  4.59  0.  0.
461  4.60  0.  0.
462  4.61  0.  0.
463  4.62  0.  0.
464  4.63  0.  0.
465  4.64  0.  0.
466  4.65  0.  0.
467  4.66  0.  0.
468  4.67  0.  0.
469  4.68  0.  0.
470  4.69  0.  0.
471  4.70  0.  0.
472  4.71  0.  0.
473  4.72  0.  0.
474  4.73  0.  0.
475  4.74  0.  0.
476  4.75  0.  0.
477  4.76  0.  0.
478  4.77  0.  0.
479  4.78  0.  0.
480  4.79  0.  0.
481  4.80  0.  0.
482  4.81  0.  0.
483  4.82  0.  0.
484  4.83  0.  0.
485  4.84  0.  0.
486  4.85  0.  0.
487  4.86  0.  0.
488  4.87  0.  0.
489  4.88  0.  0.
490  4.89  0.  0.
491  4.90  0.  0.
492  4.91  0.  0.
493  4.92  0.  0.
494  4.93  0.  0.
495  4.94  0.  0.
496  4.95  0.  0.
497  4.96  0.  0.
498  4.97  0.  0.
499  4.98  0.  0.
500  4.99  0.  0.
501  5.00  0.  0.
502  5.01  0.  0.
503  5.02  0.  0.
504  5.03  0.  0.
505  5.04  0.  0.
506  5.05  0.  0.
507  5.06  0.  0.
508  5.07  0.  0.
509  5.08  0.  0.
510  5.09  0.  0.
511  5.10  0.  0.
512  5.11  0.  0.
513  5.12  0.  0.
514  5.13  0.  0.
515  5.14  0.  0.
516  5.15  0.  0.
517  5.16  0.  0.
518  5.17  0.  0.
519  5.18  0.  0.
520  5.19  0.  0.
521  5.20  0.  0.
522  5.21  0.  0.
523  5.22  0.  0.
524  5.23  0.  0.
525  5.24  0.  0.
526  5.25  0.  0.
527  5.26  0.  0.
528  5.27  0.  0.
529  5.28  0.  0.
530  5.29  0.  0.
531  5.30  0.  0.
532  5.31  0.  0.
533  5.32  0.  0.
534  5.33  0.  0.
535  5.34  0.  0.
536  5.35  0.  0.
537  5.36  0.  0.
538  5.37  0.  0.
539  5.38  0.  0.
540  5.39  0.  0.
541  5.40  0.  0.
542  5.41  0.  0.
543  5.42  0.  0.
544  5.43  0.  0.
545  5.44  0.  0.
546  5.45  0.  0.
547  5.46  0.  0.
548  5.47  0.  0.
549  5.48  0.  0.
550  5.49  0.  0.
551  5.50  0.  0.
552  5.51  0.  0.
553  5.52  0.  0.
554  5.53  0.  0.
555  5.54  0.  0.
556  5.55  0.  0.
557  5.56  0.  0.
558  5.57  0.  0.
559  5.58  0.  0.
560  5.59  0.  0.
561  5.60  0.  0.
562  5.61  0.  0.
563  5.62  0.  0.
564  5.63  0.  0.
565  5.64  0.  0.
566  5.65  0.  0.
567  5.66  0.  0.
568  5.67  0.  0.
569  5.68  0.  0.
570  5.69  0.  0.
571  5.70  0.  0.
572  5.71  0.  0.
573  5.72  0.  0.
574  5.73  0.  0.
575  5.74  0.  0.
576  5.75  0.  0.
577  5.76  0.  0.
578  5.77  0.  0.
579  5.78  0.  0.
580  5.79  0.  0.
581  5.80  0.  0.
582  5.81  0.  0.
583  5.82  0.  0.
584  5.83  0.  0.
585  5.84  0.  0.
586  5.85  0.  0.
587  5.86  0.  0.
588  5.87  0.  0.
589  5.88  0.  0.
590  5.89  0.  0.
591  5.90  0.  0.
592  5.91  0.  0.
593  5.92  0.  0.
594  5.93  0.  0.
595  5.94  0.  0.
596  5.95  0.  0.
597  5.96  0.  0.
598  5.97  0.  0.
599  5.98  0.  0.
600  5.99  0.  0.
1                         6.4445780435194E+00  5.2831774650227E-01
1  0.0000000000000E+00  8.3686768626023E-10 -4.8714084988077E-09
2  1.0000000000000E-02  1.1980920205129E-03 -1.1309426719601E-03
3  2.0000000000000E-02  4.7874854006494E-03 -4.5100004353779E-03
4  3.0000000000000E-02  1.0753569128443E-02 -1.0096050609093E-02
5  4.0000000000000E-02  1.9072114484003E-02 -1.7821179558377E-02
6  5.0000000000000E-02  2.9709457837419E-02 -2.7591609348469E-02
7  6.0000000000000E-02  4.2622753286850E-02 -3.9288976010060E-02
8  7.0000000000000E-02  5.7760291916743E-02 -5.2771940703539E-02
9  8.0000000000000E-02  7.5061883619245E-02 -6.7878110197419E-02
10  9.0000000000000E-02  9.4459296645615E-02 -8.4426238551335E-02
11  1.0000000000000E-01  1.1587674935042E-01 -1.0221867778308E-01
12  1.1000000000000E-01  1.3923144796993E-01 -1.2104404166195E-01
13  1.2000000000000E-01  1.6443416374667E-01 -1.4068004366168E-01
14  1.3000000000000E-01  1.9138984228252E-01 -1.6089646757202E-01
15  1.4000000000000E-01  2.1999823767900E-01 -1.8145822734498E-01
16  1.5000000000000E-01  2.5015456381073E-01 -2.0212847147078E-01
17  1.6000000000000E-01  2.8175015497905E-01 -2.2267168655758E-01
18  1.7000000000000E-01  3.1467312820902E-01 -2.4285675483925E-01
19  1.8000000000000E-01  3.4880903958355E-01 -2.6245992105580E-01
20  1.9000000000000E-01  3.8404152725217E-01 -2.8126762553383E-01
21  2.0000000000000E-01  4.2025293410306E-01 -2.9907916231723E-01
22  2.1000000000000E-01  4.5732490354225E-01 -3.1570912383607E-01
23  2.2000000000000E-01  4.9513894237340E-01 -3.3098959681295E-01
24  2.3000000000000E-01  5.3357694540967E-01 -3.4477207784686E-01
25  2.4000000000000E-01  5.7252167716261E-01 -3.5692908132966E-01
26  2.5000000000000E-01  6.1185720673349E-01 -3.6735541697799E-01
27  2.6000000000000E-01  6.5146929286543E-01 -3.7596911923659E-01
28  2.7000000000000E-01  6.9124571698839E-01 -3.8271201605423E-01
29  2.8000000000000E-01  7.3107656298919E-01 -3.8754992997363E-01
30  2.9000000000000E-01  7.7085444335077E-01 -3.9047251003159E-01
31  3.0000000000000E-01  8.1047467221522E-01 -3.9149269855259E-01
32  3.1000000000000E-01  8.4983538681800E-01 -3.9064584245494E-01
33  3.2000000000000E-01  8.8883761960343E-01 -3.8798846409136E-01
34  3.3000000000000E-01  9.2738532414850E-01 -3.8359671183330E-01
35  3.4000000000000E-01  9.6538535878183E-01 -3.7756451550349E-01
36  3.5000000000000E-01  1.0027474324733E+00 -3.7000147628891E-01
37  3.6000000000000E-01  1.0393840181771E+00 -3.6103052485810E-01
38  3.7000000000000E-01  1.0752102393271E+00 -3.5078538499958E-01
39  3.8000000000000E-01  1.1101437355977E+00 -3.3940788313611E-01
40  3.9000000000000E-01  1.1441045143526E+00 -3.2704514650487E-01
41  4.0000000000000E-01  1.1770147943963E+00 -3.1384673458776E-01
42  4.1000000000000E-01  1.2087988487248E+00 -2.9996174949860E-01
43  4.2000000000000E-01  1.2393828529285E+00 -2.8553597146602E-01
44  4.3000000000000E-01  1.2686947457429E+00 -2.7070906528195E-01
45  4.4000000000000E-01  1.2966641079682E+00 -2.5561190261774E-01
46  4.5000000000000E-01  1.3232220655888E+00 -2.4036404345334E-01
47  4.6000000000000E-01  1.3483012224301E+00 -2.2507141754249E-01
48  4.7000000000000E-01  1.3718356270943E+00 -2.0982424387992E-01
49  4.8000000000000E-01  1.3937607782296E+00 -1.9469522258636E-01
50  4.9000000000000E-01  1.4140136714231E+00 -1.7973802953662E-01
51  5.0000000000000E-01  1.4325328901712E+00 -1.6498613948106E-01
52  5.1000000000000E-01  1.4492587424920E+00 -1.5045199842224E-01
53  5.2000000000000E-01  1.4641334438139E+00 -1.3612656067749E-01
54  5.3000000000000E-01  1.4771013458166E+00 -1.2197920046518E-01
55  5.4000000000000E-01  1.4881092099352E+00 -1.0795800208128E-01
56  5.5000000000000E-01  1.4971065232734E+00 -9.3990426870705E-02
57  5.6000000000000E-01  1.5040458537355E+00 -7.9984349334128E-02
58  5.7000000000000E-01  1.5088832402801E+00 -6.5829448934748E-02
59  5.8000000000000E-01  1.5115786133507E+00 -5.1398938571383E-02
60  5.9000000000000E-01  1.5120962397552E+00 -3.6551605349302E-02
61  6.0000000000000E-01  1.5104051855665E+00 -2.1134134294176E-02
62  6.1000000000000E-01  1.5064797900083E+00 -4.9836810944808E-03
63  6.2000000000000E-01  1.5003001427912E+00  1.2069344102304E-02
64  6.3000000000000E-01  1.4918525569805E+00  3.0198323308956E-02
65  6.4000000000000E-01  1.4811300292136E+00  4.9577352074566E-02
66  6.5000000000000E-01  1.4681326789595E+00  7.0378082159267E-02
67  6.6000000000000E-01  1.4528681585138E+00  9.2766533541056E-02
68  6.7000000000000E-01  1.4353520255669E+00  1.1689992454275E-01
69  6.8000000000000E-01  1.4156080704637E+00  1.4292356886933E-01
70  6.9000000000000E-01  1.3936685906853E+00  1.7096788758953E-01
71  7.0000000000000E-01  1.3695746056309E+00  2.0114558259061E-01
72  7.1000000000000E-01  1.3433760054497E+00  2.3354901579874E-01
73  7.2000000000000E-01  1.3151316284570E+00  2.6824783552022E-01
74  7.3000000000000E-01  1.2849092625643E+00  3.0528688766586E-01
75  7.4000000000000E-01  1.2527855671365E+00  3.4468444542099E-01
76  7.5000000000000E-01  1.2188459127580E+00  3.8643078618410E-01
77  7.6000000000000E-01  1.1831841375165E+00  4.3048713938716E-01
78  7.7000000000000E-01  1.1459022195911E+00  4.7678502321309E-01
79  7.8000000000000E-01  1.1071098671379E+00  5.2522598232607E-01
80  7.9000000000000E-01  1.0669240276812E+00  5.7568173262373E-01
81  8.0000000000000E-01  1.0254683204272E+00  6.2799471280252E-01
82  8.1000000000000E-01  9.8287239609835E-01  6.8197903629960E-01
83  8.2000000000000E-01  9.3927123001703E-01  7.3742183103813E-01
84  8.3000000000000E-01  8.9480435523560E-01  7.9408494845938E-01
85  8.4000000000000E-01  8.4961504349123E-01  8.5170701767127E-01
86  8.5000000000000E-01  8.0384944264450E-01  9.1000581527827E-01
87  8.6000000000000E-01  7.5765568002305E-01  9.6868091666902E-01
88  8.7000000000000E-01  7.1118294172161E-01  1.0274165903090E+00
89  8.8000000000000E-01  6.6458053839437E-01  1.0858848929959E+00
90  8.9000000000000E-01  6.1799696840417E-01  1.1437489211426E+00
91  9.0000000000000E-01  5.7157898935678E-01  1.2006661710229E+00
92  9.1000000000000E-01  5.2547070904103E-01  1.2562919595793E+00
93  9.2000000000000E-01  4.7981270661366E-01  1.3102828568928E+00
94  9.3000000000000E-01  4.3474119450919E-01  1.3623000817595E+00
95  9.4000000000000E-01  3.9038723102222E-01  1.4120128130186E+00
96  9.5000000000000E-01  3.4687599280692E-01  1.4591013713136E+00
97  9.6000000000000E-01  3.0432611567100E-01  1.5032602288227E+00
98  9.7000000000000E-01  2.6284911102213E-01  1.5442008081259E+00
99  9.8000000000000E-01  2.2254886416180E-01  1.5816540357269E+00
100  9.9000000000000E-01  1.8352121933406E-01  1.6153726207554E+00
101  1.0000000000000E+00  1.4585365503783E-01  1.6451330349563E+00
102  1.0100000000000E+00  1.0962505162345E-01  1.6707371761380E+00
103  1.0200000000000E+00  7.4905551636868E-02  1.6920137036972E+00
104  1.0300000000000E+00  4.1756511773929E-02  1.7088190415402E+00
105  1.0400000000000E+00  1.0230543683108E-02  1.7210380505834E+00
106  1.0500000000000E+00 -1.9628360760133E-02  1.7285843798753E+00
107  1.0600000000000E+00 -4.7784625666445E-02  1.7314005121275E+00
108  1.0700000000000E+00 -7.4210816314025E-02  1.7294575259275E+00
109  1.0800000000000E+00 -9.8887302205785E-02  1.7227546029735E+00
110  1.0900000000000E+00 -1.2180186821858E-01  1.7113183141917E+00
111  1.1000000000000E+00 -1.4294928521557E-01  1.6952017234146E+00
112  1.1100000000000E+00 -1.6233085246660E-01  1.6744833512559E+00
113  1.1200000000000E+00 -1.7995392498379E-01  1.6492660447926E+00
114  1.1300000000000E+00 -1.9583143939880E-01  1.6196758004834E+00
115  1.1400000000000E+00 -2.0998145225597E-01  1.5858605882899E+00
116  1.1500000000000E+00 -2.2242670454322E-01  1.5479892240897E+00
117  1.1600000000000E+00 -2.3319422589664E-01  1.5062503350075E+00
118  1.1700000000000E+00 -2.4231499117499E-01  1.4608514581692E+00
119  1.1800000000000E+00 -2.4982364096662E-01  1.4120183073989E+00
120  1.1900000000000E+00 -2.5575827604847E-01  1.3599942344781E+00
121  1.2000000000000E+00 -2.6016033382744E-01  1.3050399015953E+00
122  1.2100000000000E+00 -2.6307455232868E-01  1.2474331694003E+00
123  1.2200000000000E+00 -2.6454902434766E-01  1.1874691906269E+00
124  1.2300000000000E+00 -2.6463534087678E-01  1.1254606822095E+00
125  1.2400000000000E+00 -2.6338881888872E-01  1.0617383293770E+00
126  1.2500000000000E+00 -2.6086880391913E-01  9.9665125295370E-01
127  1.2600000000000E+00 -2.5713903262972E-01  9.3056744600191E-01
128  1.2700000000000E+00 -2.5226803465510E-01  8.6387405803855E-01
129  1.2800000000000E+00 -2.4632954642542E-01  7.9697737381913E-01
130  1.2900000000000E+00 -2.3940290234718E-01  7.3030229928401E-01
131  1.3000000000000E+00 -2.3157336067903E-01  6.6429112955053E-01
132  1.3100000000000E+00 -2.2293231253654E-01  5.9940133225184E-01
133  1.3200000000000E+00 -2.1357731274619E-01  5.3610203431726E-01
134  1.3300000000000E+00 -2.0361186066301E-01  4.7486885108802E-01