I     ONCVPSP-4.0.1  r_core=   1.95058   1.85943   1.85943   1.85943
53.0000     17.0000      220131    zatom,zion,pspd
8      11   3     4   600     0    pspcod,pspxc,lmax,lloc,mmax,r2well
5.99000000  8.80000000  0.00000000    rchrg fchrg qchrg
2     2     2     2     0    nproj
1     1           extension_switch
0                         9.6865503565344E+00  1.6720476745964E+00
1  0.0000000000000E+00 -2.7087360132683E-10  3.5824887500979E-10
2  1.0000000000000E-02  4.1032039880434E-02 -2.0678466983059E-02
3  2.0000000000000E-02  8.1902884108503E-02 -4.1178714005545E-02
4  3.0000000000000E-02  1.2245255988858E-01 -6.1323996844744E-02
5  4.0000000000000E-02  1.6252353078465E-01 -8.0940510869355E-02
6  5.0000000000000E-02  2.0196189158449E-01 -9.9858831215658E-02
7  6.0000000000000E-02  2.4061853537755E-01 -1.1791531767500E-01
8  7.0000000000000E-02  2.7835028390392E-01 -1.3495347295229E-01
9  8.0000000000000E-02  3.1502097250260E-01 -1.5082524331351E-01
10  9.0000000000000E-02  3.5050248132231E-01 -1.6539225108296E-01
11  1.0000000000000E-01  3.8467570485452E-01 -1.7852694897542E-01
12  1.1000000000000E-01  4.1743145230449E-01 -1.9011368684995E-01
13  1.2000000000000E-01  4.4867127182667E-01 -2.0004968214701E-01
14  1.3000000000000E-01  4.7830819221457E-01 -2.0824588601361E-01
15  1.4000000000000E-01  5.0626737624631E-01 -2.1462773792680E-01
16  1.5000000000000E-01  5.3248668054171E-01 -2.1913580248826E-01
17  1.6000000000000E-01  5.5691711748099E-01 -2.2172628297552E-01
18  1.7000000000000E-01  5.7952321546259E-01 -2.2237140719166E-01
19  1.8000000000000E-01  6.0028327453430E-01 -2.2105968214829E-01
20  1.9000000000000E-01  6.1918951521201E-01 -2.1779601513871E-01
21  2.0000000000000E-01  6.3624811909747E-01 -2.1260169980153E-01
22  2.1000000000000E-01  6.5147916071656E-01 -2.0551426683264E-01
23  2.2000000000000E-01  6.6491643081483E-01 -1.9658720006619E-01
24  2.3000000000000E-01  6.7660715216299E-01 -1.8588951970669E-01
25  2.4000000000000E-01  6.8661158973528E-01 -1.7350523554467E-01
26  2.5000000000000E-01  6.9500255792178E-01 -1.5953267402145E-01
27  2.6000000000000E-01  7.0186482821692E-01 -1.4408368401507E-01
28  2.7000000000000E-01  7.0729444158381E-01 -1.2728272719254E-01
29  2.8000000000000E-01  7.1139793042318E-01 -1.0926585970572E-01
30  2.9000000000000E-01  7.1429145576990E-01 -9.0179612891500E-02
31  3.0000000000000E-01  7.1609986599554E-01 -7.0179781465495E-02
32  3.1000000000000E-01  7.1695568390605E-01 -4.9430128465278E-02
33  3.2000000000000E-01  7.1699802968548E-01 -2.8101016897934E-02
34  3.3000000000000E-01  7.1637148764536E-01 -6.3679786723928E-03
35  3.4000000000000E-01  7.1522492519065E-01  1.5589768055942E-02
36  3.5000000000000E-01  7.1371027280421E-01  3.7590841536639E-02
37  3.6000000000000E-01  7.1198127417833E-01  5.9453247102942E-02
38  3.7000000000000E-01  7.1019221588285E-01  8.0995943621955E-02
39  3.8000000000000E-01  7.0849664615106E-01  1.0204041326649E-01
40  3.9000000000000E-01  7.0704609248641E-01  1.2241222205952E-01
41  4.0000000000000E-01  7.0598878784322E-01  1.4194255863906E-01
42  4.1000000000000E-01  7.0546841511252E-01  1.6046973878522E-01
43  4.2000000000000E-01  7.0562287954997E-01  1.7784066344083E-01
44  4.3000000000000E-01  7.0658311861663E-01  1.9391221824354E-01
45  4.4000000000000E-01  7.0847195846584E-01  2.0855260296693E-01
46  4.5000000000000E-01  7.1140302600282E-01  2.2164257973977E-01
47  4.6000000000000E-01  7.1547972506895E-01  2.3307662947355E-01
48  4.7000000000000E-01  7.2079428486278E-01  2.4276400657334E-01
49  4.8000000000000E-01  7.2742688820794E-01  2.5062968273370E-01
50  4.9000000000000E-01  7.3544488671677E-01  2.5661517142299E-01
51  5.0000000000000E-01  7.4490210928286E-01  2.6067922553128E-01
52  5.1000000000000E-01  7.5583826966872E-01  2.6279840159303E-01
53  5.2000000000000E-01  7.6827847824187E-01  2.6296748498830E-01
54  5.3000000000000E-01  7.8223286215926E-01  2.6119977156930E-01
55  5.4000000000000E-01  7.9769629751006E-01  2.5752720224418E-01
56  5.5000000000000E-01  8.1464825610793E-01  2.5200034816925E-01
57  5.6000000000000E-01  8.3305276878029E-01  2.4468824534656E-01
58  5.7000000000000E-01  8.5285850614110E-01  2.3567807858645E-01
59  5.8000000000000E-01  8.7399897696110E-01  2.2507471596611E-01
60  5.9000000000000E-01  8.9639284337155E-01  2.1300009608649E-01
61  6.0000000000000E-01  9.1994435126123E-01  1.9959247159198E-01
62  6.1000000000000E-01  9.4454387335849E-01  1.8500551356044E-01
63  6.2000000000000E-01  9.7006856163585E-01  1.6940728248837E-01
64  6.3000000000000E-01  9.9638310484239E-01  1.5297907267600E-01
65  6.4000000000000E-01  1.0233405861634E+00  1.3591413785341E-01
66  6.5000000000000E-01  1.0507834352346E+00  1.1841630687215E-01
67  6.6000000000000E-01  1.0785444680067E+00  1.0069849920915E-01
68  6.7000000000000E-01  1.1064480072671E+00  8.2981150883932E-02
69  6.8000000000000E-01  1.1343110759902E+00  6.5490562169145E-02
70  6.9000000000000E-01  1.1619446551064E+00  4.8457179171059E-02
71  7.0000000000000E-01  1.1891549967568E+00  3.2113821965587E-02
72  7.1000000000000E-01  1.2157449836489E+00  1.6693872491023E-02
73  7.2000000000000E-01  1.2415155247342E+00  2.4294358162014E-03
74  7.3000000000000E-01  1.2662669771177E+00 -1.0450511281658E-02
75  7.4000000000000E-01  1.2898005838623E+00 -2.1721970284695E-02
76  7.5000000000000E-01  1.3119199171896E+00 -3.1167755200246E-02
77  7.6000000000000E-01  1.3324323164866E+00 -3.8579296883609E-02
78  7.7000000000000E-01  1.3511503105215E+00 -4.3758403293039E-02
79  7.8000000000000E-01  1.3678930133441E+00 -4.6518961778474E-02
80  7.9000000000000E-01  1.3824874834931E+00 -4.6688569840783E-02
81  8.0000000000000E-01  1.3947700363659E+00 -4.4110081240835E-02
82  8.1000000000000E-01  1.4045874999097E+00 -3.8643054884718E-02
83  8.2000000000000E-01  1.4117984041781E+00 -3.0165094559513E-02
84  8.3000000000000E-01  1.4162740957482E+00 -1.8573068339164E-02
85  8.4000000000000E-01  1.4178997685218E+00 -3.7841973166287E-03
86  8.5000000000000E-01  1.4165754030224E+00  1.4262995758828E-02
87  8.6000000000000E-01  1.4122166069520E+00  3.5607886358158E-02
88  8.7000000000000E-01  1.4047553504825E+00  6.0267103907685E-02
89  8.8000000000000E-01  1.3941405905165E+00  8.8234049589039E-02
90  8.9000000000000E-01  1.3803387789615E+00  1.1947858121552E-01
91  9.0000000000000E-01  1.3633342509065E+00  1.5394686895495E-01
92  9.1000000000000E-01  1.3431294894763E+00  1.9156142438992E-01
93  9.2000000000000E-01  1.3197452650428E+00  2.3222130409891E-01
94  9.3000000000000E-01  1.2932206474073E+00  2.7580248761686E-01
95  9.4000000000000E-01  1.2636128905066E+00  3.2215842830065E-01
96  9.5000000000000E-01  1.2309971901475E+00  3.7112077429463E-01
97  9.6000000000000E-01  1.1954663162214E+00  4.2250025547421E-01
98  9.7000000000000E-01  1.1571301217894E+00  4.7608773095162E-01
99  9.8000000000000E-01  1.1161149323535E+00  5.3165539046777E-01
100  9.9000000000000E-01  1.0725628195286E+00  5.8895810177780E-01
101  1.0000000000000E+00  1.0266307642028E+00  6.4773489497528E-01
102  1.0100000000000E+00  9.7848971510410E-01  7.0771057360060E-01
103  1.0200000000000E+00  9.2832354948475E-01  7.6859744135101E-01
104  1.0300000000000E+00  8.7632794337444E-01  8.3009713226345E-01
105  1.0400000000000E+00  8.2270915953625E-01  8.9190253138291E-01
106  1.0500000000000E+00  7.6768276188584E-01  9.5369977216640E-01
107  1.0600000000000E+00  7.1147226568976E-01  1.0151702962128E+00
108  1.0700000000000E+00  6.5430773334609E-01  1.0759929603572E+00
109  1.0800000000000E+00  5.9642432596281E-01  1.1358461757299E+00
110  1.0900000000000E+00  5.3806082128241E-01  1.1944100630584E+00
111  1.1000000000000E+00  4.7945810875484E-01  1.2513686082914E+00
112  1.1100000000000E+00  4.2085767272986E-01  1.3064118025452E+00
113  1.1200000000000E+00  3.6250007482569E-01  1.3592377504183E+00
114  1.1300000000000E+00  3.0462344652980E-01  1.4095547308938E+00
115  1.1400000000000E+00  2.4746200300218E-01  1.4570831953398E+00
116  1.1500000000000E+00  1.9124458887996E-01  1.5015576875370E+00
117  1.1600000000000E+00  1.3619326662751E-01  1.5427286711985E+00
118  1.1700000000000E+00  8.2521957638890E-02  1.5803642510973E+00
119  1.1800000000000E+00  3.0435145882939E-02  1.6142517746806E+00
120  1.1900000000000E+00 -1.9873346610612E-02  1.6441993019180E+00
121  1.2000000000000E+00 -6.8221503693004E-02  1.6700369320992E+00
122  1.2100000000000E+00 -1.1444017036509E-01  1.6916179773547E+00
123  1.2200000000000E+00 -1.5837401197180E-01  1.7088199738190E+00
124  1.2300000000000E+00 -1.9988237067249E-01  1.7215455225727E+00
125  1.2400000000000E+00 -2.3884001334326E-01  1.7297229537853E+00
126  1.2500000000000E+00 -2.7513776592014E-01  1.7333068088226E+00
127  1.2600000000000E+00 -3.0868303007719E-01  1.7322781364661E+00
128  1.2700000000000E+00 -3.3940017905726E-01  1.7266446008145E+00
129  1.2800000000000E+00 -3.6723083041701E-01  1.7164403998834E+00
130  1.2900000000000E+00 -3.9213399440507E-01  1.7017259953693E+00
131  1.3000000000000E+00 -4.1408609766553E-01  1.6825876555061E+00
132  1.3100000000000E+00 -4.3308088292678E-01  1.6591368143868E+00
133  1.3200000000000E+00 -4.4912918629739E-01  1.6315092525415E+00
134  1.3300000000000E+00 -4.6225859473990E-01  1.5998641049521E+00
135  1.3400000000000E+00 -4.7251298721839E-01  1.5643827040283E+00
136  1.3500000000000E+00 -4.7995196391123E-01  1.5252672663529E+00
137  1.3600000000000E+00 -4.8465016873497E-01  1.4827394332181E+00
138  1.3700000000000E+00 -4.8669651124325E-01  1.4370386761242E+00
139  1.3800000000000E+00 -4.8619329472381E-01  1.3884205794592E+00
140  1.3900000000000E+00 -4.8325525802319E-01  1.3371550135391E+00
141  1.4000000000000E+00 -4.7800853926969E-01  1.2835242120452E+00
142  1.4100000000000E+00 -4.7058957024119E-01  1.2278207686376E+00
143  1.4200000000000E+00 -4.6114391062475E-01  1.1703455681561E+00
144  1.4300000000000E+00 -4.4982503183988E-01  1.1114056683224E+00
145  1.4400000000000E+00 -4.3679306044189E-01  1.0513121482387E+00
146  1.4500000000000E+00 -4.2221349138302E-01  9.9037794022959E-01
147  1.4600000000000E+00 -4.0625588158617E-01  9.2891566168823E-01
148  1.4700000000000E+00 -3.8909253437569E-01  8.6723546357628E-01
149  1.4800000000000E+00 -3.7089718531349E-01  8.0564291207550E-01
150  1.4900000000000E+00 -3.5184369990450E-01  7.4443691960867E-01
151  1.5000000000000E+00 -3.3210479346686E-01  6.8390774103592E-01
152  1.5100000000000E+00 -3.1185078320690E-01  6.2433505029203E-01
153  1.5200000000000E+00 -2.9124838220454E-01  5.6598611207149E-01
154  1.5300000000000E+00 -2.7045954459795E-01  5.0911406238500E-01
155  1.5400000000000E+00 -2.4964037076579E-01  4.5395631092160E-01
156  1.5500000000000E+00 -2.2894008074330E-01  4.0073307715463E-01
157  1.5600000000000E+00 -2.0850006347984E-01  3.4964607103785E-01
158  1.5700000000000E+00 -1.8845300885562E-01  3.0087732795834E-01
159  1.5800000000000E+00 -1.6892212863074E-01  2.5458820635550E-01
160  1.5900000000000E+00 -1.5002047170648E-01  2.1091855509072E-01
161  1.6000000000000E+00 -1.3185033824332E-01  1.6998605627002E-01
162  1.6100000000000E+00 -1.1450279631059E-01  1.3188574779504E-01
163  1.6200000000000E+00 -9.8057303845414E-02  9.6689728456447E-02
164  1.6300000000000E+00 -8.2581437782322E-02  6.4447046901118E-02
165  1.6400000000000E+00 -6.8130731286428E-02  3.5183774311968E-02
166  1.6500000000000E+00 -5.4748619091135E-02  8.9032591493000E-03
167  1.6600000000000E+00 -4.2466490013826E-02 -1.4413439171515E-02
168  1.6700000000000E+00 -3.1303844807360E-02 -3.4806942238963E-02
169  1.6800000000000E+00 -2.1268556608989E-02 -5.2338776222954E-02
170  1.6900000000000E+00 -1.2357230380809E-02 -6.7090434409758E-02
171  1.7000000000000E+00 -4.5556569023534E-03 -7.9162287329190E-02
172  1.7100000000000E+00  2.1606439152480E-03 -8.8672350331801E-02
173  1.7200000000000E+00  7.8257963668141E-03 -9.5754919614364E-02
174  1.7300000000000E+00  1.2482865603331E-02 -1.0055908874003E-01
175  1.7400000000000E+00  1.6183084882042E-02 -1.0324715864592E-01
176  1.7500000000000E+00  1.8985021265867E-02 -1.0399295497144E-01
177  1.7600000000000E+00  2.0953688110947E-02 -1.0298006726248E-01
178  1.7700000000000E+00  2.2159613097258E-02 -1.0040002520914E-01
179  1.7800000000000E+00  2.2677870940796E-02 -9.6450427711748E-02
180  1.7900000000000E+00  2.2587090132697E-02 -9.1333040716320E-02
181  1.8000000000000E+00  2.1968440449442E-02 -8.5251870420636E-02
182  1.8100000000000E+00  2.0904626784403E-02 -7.8411283616463E-02
183  1.8200000000000E+00  1.9478767540929E-02 -7.1013714856139E-02
184  1.8300000000000E+00  1.7773112746255E-02 -6.3256968954096E-02
185  1.8400000000000E+00  1.5868125473438E-02 -5.5332298838117E-02
186  1.8500000000000E+00  1.3841355790277E-02 -4.7422452897972E-02
187  1.8600000000000E+00  1.1762060407029E-02 -3.9693794573791E-02
188  1.8700000000000E+00  9.6890250335592E-03 -3.2292940809225E-02
189  1.8800000000000E+00  7.6900697443106E-03 -2.5373613221342E-02
190  1.8900000000000E+00  5.8274634974845E-03 -1.9075950352023E-02
191  1.9000000000000E+00  4.1560227735507E-03 -1.3523597983516E-02
192  1.9100000000000E+00  2.7226286390292E-03 -8.8228121896040E-03
193  1.9200000000000E+00  1.5661054820063E-03 -5.0629427280712E-03
194  1.9300000000000E+00  7.1265173135349E-04 -2.3022680373223E-03
195  1.9400000000000E+00  1.9137610524540E-04 -6.1893663108808E-04
196  1.9500000000000E+00  3.4500559747702E-06 -1.1315940300959E-05
197  1.9600000000000E+00 -4.7152906723757E-06  1.5257520546327E-05
198  1.9700000000000E+00  2.8132425302795E-06 -9.0894768328668E-06
199  1.98 -0.  0.
200  1.99  0. -0.
201  2.00  0.  0.
202  2.01  0.  0.
203  2.02  0.  0.
204  2.03  0.  0.
205  2.04  0.  0.
206  2.05  0.  0.
207  2.06  0.  0.
208  2.07  0.  0.
209  2.08  0.  0.
210  2.09  0.  0.
211  2.10  0.  0.
212  2.11  0.  0.
213  2.12  0.  0.
214  2.13  0.  0.
215  2.14  0.  0.
216  2.15  0.  0.
217  2.16  0.  0.
218  2.17  0.  0.
219  2.18  0.  0.
220  2.19  0.  0.
221  2.20  0.  0.
222  2.21  0.  0.
223  2.22  0.  0.
224  2.23  0.  0.
225  2.24  0.  0.
226  2.25  0.  0.
227  2.26  0.  0.
228  2.27  0.  0.
229  2.28  0.  0.
230  2.29  0.  0.
231  2.30  0.  0.
232  2.31  0.  0.
233  2.32  0.  0.
234  2.33  0.  0.
235  2.34  0.  0.
236  2.35  0.  0.
237  2.36  0.  0.
238  2.37  0.  0.
239  2.38  0.  0.
240  2.39  0.  0.
241  2.40  0.  0.
242  2.41  0.  0.
243  2.42  0.  0.
244  2.43  0.  0.
245  2.44  0.  0.
246  2.45  0.  0.
247  2.46  0.  0.
248  2.47  0.  0.
249  2.48  0.  0.
250  2.49  0.  0.
251  2.50  0.  0.
252  2.51  0.  0.
253  2.52  0.  0.
254  2.53  0.  0.
255  2.54  0.  0.
256  2.55  0.  0.
257  2.56  0.  0.
258  2.57  0.  0.
259  2.58  0.  0.
260  2.59  0.  0.
261  2.60  0.  0.
262  2.61  0.  0.
263  2.62  0.  0.
264  2.63  0.  0.
265  2.64  0.  0.
266  2.65  0.  0.
267  2.66  0.  0.
268  2.67  0.  0.
269  2.68  0.  0.
270  2.69  0.  0.
271  2.70  0.  0.
272  2.71  0.  0.
273  2.72  0.  0.
274  2.73  0.  0.
275  2.74  0.  0.
276  2.75  0.  0.
277  2.76  0.  0.
278  2.77  0.  0.
279  2.78  0.  0.
280  2.79  0.  0.
281  2.80  0.  0.
282  2.81  0.  0.
283  2.82  0.  0.
284  2.83  0.  0.
285  2.84  0.  0.
286  2.85  0.  0.
287  2.86  0.  0.
288  2.87  0.  0.
289  2.88  0.  0.
290  2.89  0.  0.
291  2.90  0.  0.
292  2.91  0.  0.
293  2.92  0.  0.
294  2.93  0.  0.
295  2.94  0.  0.
296  2.95  0.  0.
297  2.96  0.  0.
298  2.97  0.  0.
299  2.98  0.  0.
300  2.99  0.  0.
301  3.00  0.  0.
302  3.01  0.  0.
303  3.02  0.  0.
304  3.03  0.  0.
305  3.04  0.  0.
306  3.05  0.  0.
307  3.06  0.  0.
308  3.07  0.  0.
309  3.08  0.  0.
310  3.09  0.  0.
311  3.10  0.  0.
312  3.11  0.  0.
313  3.12  0.  0.
314  3.13  0.  0.
315  3.14  0.  0.
316  3.15  0.  0.
317  3.16  0.  0.
318  3.17  0.  0.
319  3.18  0.  0.
320  3.19  0.  0.
321  3.20  0.  0.
322  3.21  0.  0.
323  3.22  0.  0.
324  3.23  0.  0.
325  3.24  0.  0.
326  3.25  0.  0.
327  3.26  0.  0.
328  3.27  0.  0.
329  3.28  0.  0.
330  3.29  0.  0.
331  3.30  0.  0.
332  3.31  0.  0.
333  3.32  0.  0.
334  3.33  0.  0.
335  3.34  0.  0.
336  3.35  0.  0.
337  3.36  0.  0.
338  3.37  0.  0.
339  3.38  0.  0.
340  3.39  0.  0.
341  3.40  0.  0.
342  3.41  0.  0.
343  3.42  0.  0.
344  3.43  0.  0.
345  3.44  0.  0.
346  3.45  0.  0.
347  3.46  0.  0.
348  3.47  0.  0.
349  3.48  0.  0.
350  3.49  0.  0.
351  3.50  0.  0.
352  3.51  0.  0.
353  3.52  0.  0.
354  3.53  0.  0.
355  3.54  0.  0.
356  3.55  0.  0.
357  3.56  0.  0.
358  3.57  0.  0.
359  3.58  0.  0.
360  3.59  0.  0.
361  3.60  0.  0.
362  3.61  0.  0.
363  3.62  0.  0.
364  3.63  0.  0.
365  3.64  0.  0.
366  3.65  0.  0.
367  3.66  0.  0.
368  3.67  0.  0.
369  3.68  0.  0.
370  3.69  0.  0.
371  3.70  0.  0.
372  3.71  0.  0.
373  3.72  0.  0.
374  3.73  0.  0.
375  3.74  0.  0.
376  3.75  0.  0.
377  3.76  0.  0.
378  3.77  0.  0.
379  3.78  0.  0.
380  3.79  0.  0.
381  3.80  0.  0.
382  3.81  0.  0.
383  3.82  0.  0.
384  3.83  0.  0.
385  3.84  0.  0.
386  3.85  0.  0.
387  3.86  0.  0.
388  3.87  0.  0.
389  3.88  0.  0.
390  3.89  0.  0.
391  3.90  0.  0.
392  3.91  0.  0.
393  3.92  0.  0.
394  3.93  0.  0.
395  3.94  0.  0.
396  3.95  0.  0.
397  3.96  0.  0.
398  3.97  0.  0.
399  3.98  0.  0.
400  3.99  0.  0.
401  4.00  0.  0.
402  4.01  0.  0.
403  4.02  0.  0.
404  4.03  0.  0.
405  4.04  0.  0.
406  4.05  0.  0.
407  4.06  0.  0.
408  4.07  0.  0.
409  4.08  0.  0.
410  4.09  0.  0.
411  4.10  0.  0.
412  4.11  0.  0.
413  4.12  0.  0.
414  4.13  0.  0.
415  4.14  0.  0.
416  4.15  0.  0.
417  4.16  0.  0.
418  4.17  0.  0.
419  4.18  0.  0.
420  4.19  0.  0.
421  4.20  0.  0.
422  4.21  0.  0.
423  4.22  0.  0.
424  4.23  0.  0.
425  4.24  0.  0.
426  4.25  0.  0.
427  4.26  0.  0.
428  4.27  0.  0.
429  4.28  0.  0.
430  4.29  0.  0.
431  4.30  0.  0.
432  4.31  0.  0.
433  4.32  0.  0.
434  4.33  0.  0.
435  4.34  0.  0.
436  4.35  0.  0.
437  4.36  0.  0.
438  4.37  0.  0.
439  4.38  0.  0.
440  4.39  0.  0.
441  4.40  0.  0.
442  4.41  0.  0.
443  4.42  0.  0.
444  4.43  0.  0.
445  4.44  0.  0.
446  4.45  0.  0.
447  4.46  0.  0.
448  4.47  0.  0.
449  4.48  0.  0.
450  4.49  0.  0.
451  4.50  0.  0.
452  4.51  0.  0.
453  4.52  0.  0.
454  4.53  0.  0.
455  4.54  0.  0.
456  4.55  0.  0.
457  4.56  0.  0.
458  4.57  0.  0.
459  4.58  0.  0.
460  4.59  0.  0.
461  4.60  0.  0.
462  4.61  0.  0.
463  4.62  0.  0.
464  4.63  0.  0.
465  4.64  0.  0.
466  4.65  0.  0.
467  4.66  0.  0.
468  4.67  0.  0.
469  4.68  0.  0.
470  4.69  0.  0.
471  4.70  0.  0.
472  4.71  0.  0.
473  4.72  0.  0.
474  4.73  0.  0.
475  4.74  0.  0.
476  4.75  0.  0.
477  4.76  0.  0.
478  4.77  0.  0.
479  4.78  0.  0.
480  4.79  0.  0.
481  4.80  0.  0.
482  4.81  0.  0.
483  4.82  0.  0.
484  4.83  0.  0.
485  4.84  0.  0.
486  4.85  0.  0.
487  4.86  0.  0.
488  4.87  0.  0.
489  4.88  0.  0.
490  4.89  0.  0.
491  4.90  0.  0.
492  4.91  0.  0.
493  4.92  0.  0.
494  4.93  0.  0.
495  4.94  0.  0.
496  4.95  0.  0.
497  4.96  0.  0.
498  4.97  0.  0.
499  4.98  0.  0.
500  4.99  0.  0.
501  5.00  0.  0.
502  5.01  0.  0.
503  5.02  0.  0.
504  5.03  0.  0.
505  5.04  0.  0.
506  5.05  0.  0.
507  5.06  0.  0.
508  5.07  0.  0.
509  5.08  0.  0.
510  5.09  0.  0.
511  5.10  0.  0.
512  5.11  0.  0.
513  5.12  0.  0.
514  5.13  0.  0.
515  5.14  0.  0.
516  5.15  0.  0.
517  5.16  0.  0.
518  5.17  0.  0.
519  5.18  0.  0.
520  5.19  0.  0.
521  5.20  0.  0.
522  5.21  0.  0.
523  5.22  0.  0.
524  5.23  0.  0.
525  5.24  0.  0.
526  5.25  0.  0.
527  5.26  0.  0.
528  5.27  0.  0.
529  5.28  0.  0.
530  5.29  0.  0.
531  5.30  0.  0.
532  5.31  0.  0.
533  5.32  0.  0.
534  5.33  0.  0.
535  5.34  0.  0.
536  5.35  0.  0.
537  5.36  0.  0.
538  5.37  0.  0.
539  5.38  0.  0.
540  5.39  0.  0.
541  5.40  0.  0.
542  5.41  0.  0.
543  5.42  0.  0.
544  5.43  0.  0.
545  5.44  0.  0.
546  5.45  0.  0.
547  5.46  0.  0.
548  5.47  0.  0.
549  5.48  0.  0.
550  5.49  0.  0.
551  5.50  0.  0.
552  5.51  0.  0.
553  5.52  0.  0.
554  5.53  0.  0.
555  5.54  0.  0.
556  5.55  0.  0.
557  5.56  0.  0.
558  5.57  0.  0.
559  5.58  0.  0.
560  5.59  0.  0.
561  5.60  0.  0.
562  5.61  0.  0.
563  5.62  0.  0.
564  5.63  0.  0.
565  5.64  0.  0.
566  5.65  0.  0.
567  5.66  0.  0.
568  5.67  0.  0.
569  5.68  0.  0.
570  5.69  0.  0.
571  5.70  0.  0.
572  5.71  0.  0.
573  5.72  0.  0.
574  5.73  0.  0.
575  5.74  0.  0.
576  5.75  0.  0.
577  5.76  0.  0.
578  5.77  0.  0.
579  5.78  0.  0.
580  5.79  0.  0.
581  5.80  0.  0.
582  5.81  0.  0.
583  5.82  0.  0.
584  5.83  0.  0.
585  5.84  0.  0.
586  5.85  0.  0.
587  5.86  0.  0.
588  5.87  0.  0.
589  5.88  0.  0.
590  5.89  0.  0.
591  5.90  0.  0.
592  5.91  0.  0.
593  5.92  0.  0.
594  5.93  0.  0.
595  5.94  0.  0.
596  5.95  0.  0.
597  5.96  0.  0.
598  5.97  0.  0.
599  5.98  0.  0.
600  5.99  0.  0.
1                         5.7351075547077E+00  1.1808256737273E+00
1  0.0000000000000E+00 -3.1214830928383E-09  4.4200364340830E-09
2  1.0000000000000E-02 -6.9626249396819E-04  1.4292312935037E-03
3  2.0000000000000E-02 -2.7717480414671E-03  5.6979408122727E-03
4  3.0000000000000E-02 -6.1867079088967E-03  1.2749396977354E-02
5  4.0000000000000E-02 -1.0875416072096E-02  2.2489783103125E-02
6  5.0000000000000E-02 -1.6746946081047E-02  3.4789292912403E-02
7  6.0000000000000E-02 -2.3686246867702E-02  4.9483647539977E-02
8  7.0000000000000E-02 -3.1555505841420E-02  6.6376017516278E-02
9  8.0000000000000E-02 -4.0195784495006E-02  8.5239328802862E-02
10  9.0000000000000E-02 -4.9428908776461E-02  1.0581892774972E-01
11  1.0000000000000E-01 -5.9059593698233E-02  1.2783557590513E-01
12  1.1000000000000E-01 -6.8877779086066E-02  1.5098874197304E-01
13  1.2000000000000E-01 -7.8661151040498E-02  1.7496015491946E-01
14  1.3000000000000E-01 -8.8177821620033E-02  1.9941757931222E-01
15  1.4000000000000E-01 -9.7189137477983E-02  2.2401877146945E-01
16  1.5000000000000E-01 -1.0545258671382E-01  2.4841557291744E-01
17  1.6000000000000E-01 -1.1272477205035E-01  2.7225809604129E-01
18  1.7000000000000E-01 -1.1876441763296E-01  2.9519895566887E-01
19  1.8000000000000E-01 -1.2333537627516E-01  3.1689749967406E-01
20  1.9000000000000E-01 -1.2620960385258E-01  3.3702399152633E-01
21  2.0000000000000E-01 -1.2717006777566E-01  3.5526369805330E-01
22  2.1000000000000E-01 -1.2601355705048E-01  3.7132083651971E-01
23  2.2000000000000E-01 -1.2255336235982E-01  3.8492233645172E-01
24  2.3000000000000E-01 -1.1662179585682E-01  3.9582137343821E-01
25  2.4000000000000E-01 -1.0807252194669E-01  4.0380063440339E-01
26  2.5000000000000E-01 -9.6782672225024E-02  4.0867527654506E-01
27  2.6000000000000E-01 -8.2654719923567E-02  4.1029554524442E-01
28  2.7000000000000E-01 -6.5618091665963E-02  4.0854901974477E-01
29  2.8000000000000E-01 -4.5630497031290E-02  4.0336245923396E-01
30  2.9000000000000E-01 -2.2678959335884E-02  3.9470322610891E-01
31  3.0000000000000E-01  3.2194658556654E-03  3.8258026760985E-01
32  3.1000000000000E-01  3.2017294722659E-02  3.6704464164115E-01
33  3.2000000000000E-01  6.3636548535718E-02  3.4818957739779E-01
34  3.3000000000000E-01  9.7969019742697E-02  3.2615006634330E-01
35  3.4000000000000E-01  1.3487687065394E-01  3.0110198408444E-01
36  3.5000000000000E-01  1.7419356104844E-01  2.7326074870977E-01
37  3.6000000000000E-01  2.1572509750249E-01  2.4287952615031E-01
38  3.7000000000000E-01  2.5925159377867E-01  2.1024699802998E-01
39  3.8000000000000E-01  3.0452912824121E-01  1.7568471224856E-01
40  3.9000000000000E-01  3.5129188101964E-01  1.3954404113191E-01
41  4.0000000000000E-01  3.9925453055999E-01  1.0220277634317E-01
42  4.1000000000000E-01  4.4811488631503E-01  6.4061393828545E-02
43  4.2000000000000E-01  4.9755673166199E-01  2.5539025828932E-02
44  4.3000000000000E-01  5.4725284872797E-01 -1.2930819618291E-02
45  4.4000000000000E-01  5.9686819467499E-01 -5.0904748270117E-02
46  4.5000000000000E-01  6.4606319717248E-01 -8.7934132386268E-02
47  4.6000000000000E-01  6.9449713528570E-01 -1.2356987848516E-01
48  4.7000000000000E-01  7.4183157085120E-01 -1.5736726047106E-01
49  4.8000000000000E-01  7.8773379460890E-01 -1.8889076735709E-01
50  4.9000000000000E-01  8.3188025092565E-01 -2.1771891423242E-01
51  5.0000000000000E-01  8.7395990488351E-01 -2.4344896507674E-01
52  5.1000000000000E-01  9.1367751582051E-01 -2.6570151651643E-01
53  5.2000000000000E-01  9.5075678210158E-01 -2.8412489264122E-01
54  5.3000000000000E-01  9.8494332295798E-01 -2.9839930255224E-01
55  5.4000000000000E-01  1.0160074646563E+00 -3.0824071437901E-01
56  5.5000000000000E-01  1.0437468000305E+00 -3.1340440206598E-01
57  5.6000000000000E-01  1.0679884925178E+00 -3.1368812426673E-01
58  5.7000000000000E-01  1.0885912982578E+00 -3.0893489816652E-01
59  5.8000000000000E-01  1.1054472825315E+00 -2.9903533494996E-01
60  5.9000000000000E-01  1.1184832097892E+00 -2.8392950790212E-01
61  6.0000000000000E-01  1.1276615897372E+00 -2.6360832873763E-01
62  6.1000000000000E-01  1.1329813653706E+00 -2.3811441264743E-01
63  6.2000000000000E-01  1.1344782324336E+00 -2.0754241768975E-01
64  6.3000000000000E-01  1.1322245835169E+00 -1.7203884947801E-01
65  6.4000000000000E-01  1.1263290738295E+00 -1.3180132758119E-01
66  6.5000000000000E-01  1.1169358095696E+00 -8.7077315596933E-02
67  6.6000000000000E-01  1.1042231637261E+00 -3.8162322425807E-02
68  6.7000000000000E-01  1.0884022280339E+00  1.4602412187156E-02
69  6.8000000000000E-01  1.0697149136312E+00  7.0832729330813E-02
70  6.9000000000000E-01  1.0484317167001E+00  1.3010483601185E-01
71  7.0000000000000E-01  1.0248491689614E+00  1.9195903473041E-01
72  7.1000000000000E-01  9.9928699631154E-01  2.5590386378977E-01
73  7.2000000000000E-01  9.7208501209137E-01  3.2142061004573E-01
74  7.3000000000000E-01  9.4359977443282E-01  3.8796815162136E-01
75  7.4000000000000E-01  9.1420103980754E-01  4.5498808433422E-01
76  7.5000000000000E-01  8.8426804726916E-01  5.2191008224899E-01
77  7.6000000000000E-01  8.5418566991474E-01  5.8815743991551E-01
78  7.7000000000000E-01  8.2434047176597E-01  6.5315274151383E-01
79  7.8000000000000E-01  7.9511670956744E-01  7.1632360033207E-01
80  7.9000000000000E-01  7.6689231990122E-01  7.7710841077212E-01
81  8.0000000000000E-01  7.4003493251314E-01  8.3496205442984E-01
82  8.1000000000000E-01  7.1489795082676E-01  8.8936150174102E-01
83  8.2000000000000E-01  6.9181674028317E-01  9.3981125122800E-01
84  8.3000000000000E-01  6.7110496438883E-01  9.8584854952265E-01
85  8.4000000000000E-01  6.5305110718345E-01  1.0270483370734E+00
86  8.5000000000000E-01  6.3791521926518E-01  1.0630278667527E+00
87  8.6000000000000E-01  6.2592592254351E-01  1.0934509454503E+00
88  8.7000000000000E-01  6.1727770654897E-01  1.1180317521357E+00
89  8.8000000000000E-01  6.1212854643363E-01  1.1365381897815E+00
90  8.9000000000000E-01  6.1059786977302E-01  1.1487947329044E+00
91  9.0000000000000E-01  6.1276489595613E-01  1.1546847372822E+00
92  9.1000000000000E-01  6.1866736835827E-01  1.1541521835753E+00
93  9.2000000000000E-01  6.2830069566536E-01  1.1472028320925E+00
94  9.3000000000000E-01  6.4161751469630E-01  1.1339047717190E+00
95  9.4000000000000E-01  6.5852768289112E-01  1.1143883520262E+00
96  9.5000000000000E-01  6.7889870433838E-01  1.0888454937463E+00
97  9.6000000000000E-01  7.0255658884897E-01  1.0575283790483E+00
98  9.7000000000000E-01  7.2928713918996E-01  1.0207475293490E+00
99  9.8000000000000E-01  7.5883765721309E-01  9.7886928465441E-01
100  9.9000000000000E-01  7.9091905529722E-01  9.3231270459673E-01
101  1.0000000000000E+00  8.2520835531274E-01  8.8154591734631E-01
102  1.0100000000000E+00  8.6135155325643E-01  8.2708194836771E-01
103  1.0200000000000E+00  8.9896682383482E-01  7.6947406650490E-01
104  1.0300000000000E+00  9.3764803563910E-01  7.0931069005204E-01
105  1.0400000000000E+00  9.7696854419206E-01  6.4720990024373E-01
106  1.0500000000000E+00  1.0164852270885E+00  5.8381361393591E-01
107  1.0600000000000E+00  1.0557427227385E+00  5.1978147108495E-01
108  1.0700000000000E+00  1.0942778318780E+00  4.5578449593736E-01
109  1.0800000000000E+00  1.1316240390657E+00  3.9249859357491E-01
110  1.0900000000000E+00  1.1673161098610E+00  3.3059794558122E-01
111  1.1000000000000E+00  1.2008947182882E+00  2.7074837009336E-01
112  1.1100000000000E+00  1.2319110585623E+00  2.1360071234137E-01
113  1.1200000000000E+00  1.2599313948769E+00  1.5978433195897E-01
114  1.1300000000000E+00  1.2845415033522E+00  1.0990075285512E-01
115  1.1400000000000E+00  1.3053509610018E+00  6.4517540274792E-02
116  1.1500000000000E+00  1.3219972378044E+00  2.4162467851031E-02
117  1.1600000000000E+00  1.3341495496421E+00 -1.0681965023140E-02
118  1.1700000000000E+00  1.3415124319844E+00 -3.9583608274965E-02
119  1.1800000000000E+00  1.3438289967353E+00 -6.2165275163649E-02
120  1.1900000000000E+00  1.3408838375884E+00 -7.8108845960091E-02
121  1.2000000000000E+00  1.3325055525475E+00 -8.7158816847094E-02
122  1.2100000000000E+00  1.3185688558945E+00 -8.9125254841028E-02
123  1.2200000000000E+00  1.2989962558488E+00 -8.3886125274095E-02
124  1.2300000000000E+00  1.2737592783539E+00 -7.1388964436737E-02
125  1.2400000000000E+00  1.2428792218606E+00 -5.1651876382876E-02
126  1.2500000000000E+00  1.2064274326004E+00 -2.4763839567339E-02
127  1.2600000000000E+00  1.1645250945592E+00  9.1156842073887E-03
128  1.2700000000000E+00  1.1173425332154E+00  4.9757839078004E-02
129  1.2800000000000E+00  1.0650980369642E+00  9.6866156184380E-02
130  1.2900000000000E+00  1.0080562049933E+00  1.5007901309761E-01
131  1.3000000000000E+00  9.4652583518372E-01  2.0897275128588E-01
132  1.3100000000000E+00  8.8085737028529E-01  2.7306542458456E-01
133  1.3200000000000E+00  8.1143992512970E-01  3.4182114516138E-01
134  1.3300000000000E+00  7.3869792197065E-01  4.1465498727242E-01
135  1.3400000000000E+00  6.6308736510229E-01  4.9093840329069E-01
136  1.3500000000000E+00  5.8509178967943E-01  5.7000510109916E-01
137  1.3600000000000E+00  5.0521792309017E-01  6.5115732705064E-01
138  1.3700000000000E+00  4.2399110031517E-01  7.3367249430546E-01