<?xml version="1.0" encoding="UTF-8" ?>
<psml version="1.1" energy_unit="hartree" length_unit="bohr"
 uuid="811d4e20-c73c-11ed-54f7-1f37eeb73e5c"
 xmlns="http://esl.cecam.org/PSML/ns/1.1">
<provenance creator="ONCVPSP-4.0.1+psml-4.0.1-76 (scalar-relativistic)"
 date="2023-03-20">
<annotation action="semilocal-pseudopotential-generation"
 action-cont="projectors-generation" />
<input-file name="oncvpsp-input">
<![CDATA[# atsym z nc nv iexc psfile
I 53 8 3 4 both
# n l f
1 0 2.0
2 0 2.0
2 1 6.0
3 0 2.0
3 1 6.0
3 2 10.0
4 0 2.0
4 1 6.0
4 2 10.0
5 0 2.0
5 1 5.0
# lmax
3
# l rc ep ncon nbas qcut
0 1.95 0.0 4 7 3.6
1 1.85 0.0 4 7 4.8
2 1.85 0.0 4 7 8.4
3 1.85 0.05 4 8 6.0
# lloc lpopt rc5 dvloc0
4 5 1.8 0.0
# l nproj debl
0 2 5.0
1 2 2.5
2 2 2.0
3 2 2.0
# icmod fcfact rcfact
3 8.8 1.25
# epsh1 epsh2 depsh
-12.0 12.0 0.02
# rlmax drl
6.0 0.01
0
]]>
</input-file>
</provenance>
<pseudo-atom-spec atomic-label="I" atomic-number="53" z-pseudo="17"
 flavor="Hamann&apos;s oncvpsp" relativity="scalar" spin-dft="no"
 core-corrections="yes">
<annotation pseudo-energy="-107.403123214" cutoff_hint_low="59"
 cutoff_hint_normal="63" cutoff_hint_high="76" />
<exchange-correlation>
<annotation oncvpsp-xc-code="4" oncvpsp-xc-type="GGA -- Perdew-Burke-Ernzerhof" />
<libxc-info number-of-functionals="2">
<functional name="Perdew, Burke &amp; Ernzerhof (GGA)" type="exchange" id="101" />
<functional name="Perdew, Burke &amp; Ernzerhof (GGA)" type="correlation"
 id="130" />
</libxc-info>
</exchange-correlation>
<valence-configuration total-valence-charge="17">
<shell n="4" l="d" occupation="10" />
<shell n="5" l="s" occupation="2" />
<shell n="5" l="p" occupation="5" />
</valence-configuration>
</pseudo-atom-spec>
<grid npts="797">
<annotation type="sampled from oncvpsp log grid"
 recipe="r(i:1..N) = r1*exp(a*(i-1)) + r=0; resampled"
 recipe-cont="r1: scale; a: step" scale="0.943396226415E-05"
 step="0.598207167755E-02" delta="0.500000000000E-02" rmax="44.5560419514" />
<grid-data>
  0.000000000000E+00  5.011594338128E-03  1.003094094095E-02  1.506622199765E-02
  2.007739840300E-02  2.520175030298E-02  3.033668391779E-02  3.544178652072E-02
  4.066953078713E-02  4.583832888381E-02  5.104961007715E-02  5.617720408582E-02
  6.145112408536E-02  6.681924460983E-02  7.222296454539E-02  7.759809857209E-02
  8.287601637686E-02  8.798500737110E-02  9.340894821597E-02  9.857579957367E-02
  1.040284517402E-01  1.091279459141E-01  1.144774182469E-01  1.200891227146E-01
  1.252245665860E-01  1.305796205534E-01  1.361636759361E-01  1.419865256605E-01
  1.471753294568E-01  1.525537546605E-01  1.581287308608E-01  1.639074408840E-01
  1.698973300481E-01  1.750557810688E-01  1.803708538383E-01  1.858473037320E-01
  1.914900305093E-01  1.973040826963E-01  2.032946621039E-01  2.094671284807E-01
  2.145397657151E-01  2.197352463221E-01  2.250565451830E-01  2.305067092217E-01
  2.360888591488E-01  2.418061912486E-01  2.476619792098E-01  2.536595759993E-01
  2.598024157823E-01  2.660940158889E-01  2.725379788278E-01  2.791379943491E-01
  2.841926854446E-01  2.893389079782E-01  2.945783194211E-01  2.999126072581E-01
  3.053434895314E-01  3.108727153941E-01  3.165020656729E-01  3.222333534426E-01
  3.280684246091E-01  3.340091585047E-01  3.400574684929E-01  3.462153025848E-01
  3.524846440665E-01  3.588675121379E-01  3.653659625631E-01  3.719820883322E-01
  3.787180203359E-01  3.855759280512E-01  3.925580202408E-01  3.996665456638E-01
  4.069037938007E-01  4.142720955900E-01  4.217738241798E-01  4.268502939276E-01
  4.319878640653E-01  4.371872699972E-01  4.424492559789E-01  4.477745752238E-01
  4.531639900112E-01  4.586182717950E-01  4.641382013143E-01  4.697245687054E-01
  4.753781736143E-01  4.810998253119E-01  4.868903428094E-01  4.927505549754E-01
  4.986813006551E-01  5.046834287898E-01  5.107577985387E-01  5.169052794019E-01
  5.231267513448E-01  5.294231049240E-01  5.357952414149E-01  5.422440729405E-01
  5.487705226024E-01  5.553755246125E-01  5.620600244267E-01  5.688249788807E-01
  5.756713563265E-01  5.826001367713E-01  5.896123120174E-01  5.967088858049E-01
  6.038908739544E-01  6.111593045134E-01  6.185152179025E-01  6.259596670651E-01
  6.334937176179E-01  6.411184480032E-01  6.488349496434E-01  6.566443270973E-01
  6.645476982182E-01  6.725461943140E-01  6.806409603087E-01  6.888331549070E-01
  6.971239507595E-01  7.055145346308E-01  7.140061075696E-01  7.225998850803E-01
  7.312970972972E-01  7.400989891602E-01  7.490068205938E-01  7.580218666864E-01
  7.671454178739E-01  7.763787801234E-01  7.857232751210E-01  7.951802404603E-01
  8.047510298345E-01  8.144370132296E-01  8.242395771208E-01  8.341601246710E-01
  8.391650854191E-01  8.442000759316E-01  8.492652763872E-01  8.543608680455E-01
  8.594870332538E-01  8.646439554533E-01  8.698318191860E-01  8.750508101011E-01
  8.803011149617E-01  8.855829216515E-01  8.908964191814E-01  8.962417976965E-01
  9.016192484827E-01  9.070289639736E-01  9.124711377574E-01  9.179459645840E-01
  9.234536403715E-01  9.289943622137E-01  9.345683283870E-01  9.401757383573E-01
  9.458167927874E-01  9.514916935442E-01  9.572006437054E-01  9.629438475677E-01
  9.687215106531E-01  9.745338397170E-01  9.803810427553E-01  9.862633290118E-01
  9.921809089859E-01  9.981339944398E-01  1.004122798406E+00  1.010147535197E+00
  1.016208420408E+00  1.022305670931E+00  1.028439504956E+00  1.034610141986E+00
  1.040817802838E+00  1.047062709655E+00  1.053345085913E+00  1.059665156428E+00
  1.066023147367E+00  1.072419286251E+00  1.078853801968E+00  1.085326924780E+00
  1.091838886329E+00  1.098389919647E+00  1.104980259165E+00  1.111610140720E+00
  1.118279801564E+00  1.124989480373E+00  1.131739417256E+00  1.138529853759E+00
  1.145361032882E+00  1.152233199079E+00  1.159146598274E+00  1.166101477863E+00
  1.173098086730E+00  1.180136675251E+00  1.187217495302E+00  1.194340800274E+00
  1.201506845076E+00  1.208715886146E+00  1.215968181463E+00  1.223263990552E+00
  1.230603574495E+00  1.237987195942E+00  1.245415119118E+00  1.252887609833E+00
  1.260404935492E+00  1.267967365104E+00  1.275575169295E+00  1.283228620311E+00
  1.290927992033E+00  1.298673559985E+00  1.306465601345E+00  1.314304394953E+00
  1.322190221323E+00  1.330123362651E+00  1.338104102826E+00  1.346132727443E+00
  1.354209523808E+00  1.362334780951E+00  1.370508789637E+00  1.378731842374E+00
  1.387004233429E+00  1.395326258829E+00  1.403698216382E+00  1.412120405681E+00
  1.420593128115E+00  1.429116686883E+00  1.437691387005E+00  1.446317535327E+00
  1.454995440539E+00  1.463725413182E+00  1.472507765661E+00  1.481342812255E+00
  1.490230869128E+00  1.499172254343E+00  1.508167287869E+00  1.517216291596E+00
  1.526319589346E+00  1.535477506882E+00  1.544690371923E+00  1.553958514155E+00
  1.563282265240E+00  1.572661958831E+00  1.582097930584E+00  1.591590518168E+00
  1.601140061277E+00  1.610746901644E+00  1.620411383054E+00  1.630133851353E+00
  1.639914654461E+00  1.649754142388E+00  1.659652667242E+00  1.669610583245E+00
  1.679628246745E+00  1.689706016225E+00  1.699844252323E+00  1.710043317837E+00
  1.720303577744E+00  1.730625399210E+00  1.741009151605E+00  1.751455206515E+00
  1.761963937754E+00  1.772535721381E+00  1.783170935709E+00  1.793869961323E+00
  1.804633181091E+00  1.815460980178E+00  1.826353746059E+00  1.837311868535E+00
  1.848335739746E+00  1.859425754185E+00  1.870582308710E+00  1.881805802562E+00
  1.893096637377E+00  1.904455217202E+00  1.915881948505E+00  1.927377240196E+00
  1.938941503637E+00  1.950575152659E+00  1.962278603575E+00  1.974052275196E+00
  1.985896588847E+00  1.997811968381E+00  2.009798840191E+00  2.021857633232E+00
  2.033988779031E+00  2.046192711706E+00  2.058469867976E+00  2.070820687184E+00
  2.083245611307E+00  2.095745084975E+00  2.108319555484E+00  2.120969472817E+00
  2.133695289654E+00  2.146497461392E+00  2.159376446161E+00  2.172332704838E+00
  2.185366701067E+00  2.198478901273E+00  2.211669774681E+00  2.224939793329E+00
  2.238289432089E+00  2.251719168681E+00  2.265229483693E+00  2.278820860595E+00
  2.292493785759E+00  2.306248748474E+00  2.320086240964E+00  2.334006758410E+00
  2.348010798961E+00  2.362098863754E+00  2.376271456937E+00  2.390529085679E+00
  2.404872260193E+00  2.419301493754E+00  2.433817302716E+00  2.448420206533E+00
  2.463110727772E+00  2.477889392138E+00  2.492756728491E+00  2.507713268862E+00
  2.522759548475E+00  2.537896105766E+00  2.553123482401E+00  2.568442223295E+00
  2.583852876635E+00  2.599355993895E+00  2.614952129858E+00  2.630641842637E+00
  2.646425693693E+00  2.662304247855E+00  2.678278073342E+00  2.694347741782E+00
  2.710513828233E+00  2.726776911203E+00  2.743137572670E+00  2.759596398106E+00
  2.776153976494E+00  2.792810900353E+00  2.809567765756E+00  2.826425172350E+00
  2.843383723384E+00  2.860444025724E+00  2.877606689879E+00  2.894872330018E+00
  2.912241563998E+00  2.929715013382E+00  2.947293303462E+00  2.964977063283E+00
  2.982766925663E+00  3.000663527217E+00  3.018667508380E+00  3.036779513431E+00
  3.055000190511E+00  3.073330191654E+00  3.091770172804E+00  3.110320793841E+00
  3.128982718604E+00  3.147756614916E+00  3.166643154605E+00  3.185643013533E+00
  3.204756871614E+00  3.223985412844E+00  3.243329325321E+00  3.262789301273E+00
  3.282366037080E+00  3.302060233303E+00  3.321872594702E+00  3.341803830271E+00
  3.361854653252E+00  3.382025781172E+00  3.402317935859E+00  3.422731843474E+00
  3.443268234535E+00  3.463927843942E+00  3.484711411006E+00  3.505619679472E+00
  3.526653397549E+00  3.547813317934E+00  3.569100197841E+00  3.590514799029E+00
  3.612057887823E+00  3.633730235150E+00  3.655532616561E+00  3.677465812260E+00
  3.699530607133E+00  3.721727790776E+00  3.744058157521E+00  3.766522506466E+00
  3.789121641505E+00  3.811856371354E+00  3.834727509582E+00  3.857735874639E+00
  3.880882289887E+00  3.904167583627E+00  3.927592589128E+00  3.951158144663E+00
  3.974865093531E+00  3.998714284092E+00  4.022706569797E+00  4.046842809216E+00
  4.071123866071E+00  4.095550609267E+00  4.120123912923E+00  4.144844656401E+00
  4.169713724339E+00  4.194732006685E+00  4.219900398725E+00  4.245219801117E+00
  4.270691119924E+00  4.296315266644E+00  4.322093158244E+00  4.348025717193E+00
  4.374113871496E+00  4.400358554725E+00  4.426760706054E+00  4.453321270290E+00
  4.480041197912E+00  4.506921445099E+00  4.533962973770E+00  4.561166751612E+00
  4.588533752122E+00  4.616064954635E+00  4.643761344362E+00  4.671623912429E+00
  4.699653655903E+00  4.727851577839E+00  4.756218687306E+00  4.784755999429E+00
  4.813464535426E+00  4.842345322639E+00  4.871399394574E+00  4.900627790942E+00
  4.930031557688E+00  4.959611747034E+00  4.989369417516E+00  5.019305634021E+00
  5.049421467825E+00  5.079717996632E+00  5.110196304612E+00  5.140857482440E+00
  5.171702627334E+00  5.202732843098E+00  5.233949240157E+00  5.265352935598E+00
  5.296945053211E+00  5.328726723531E+00  5.360699083872E+00  5.392863278375E+00
  5.425220458045E+00  5.457771780793E+00  5.490518411478E+00  5.523461521947E+00
  5.556602291079E+00  5.589941904825E+00  5.623481556254E+00  5.657222445592E+00
  5.691165780265E+00  5.725312774947E+00  5.759664651597E+00  5.794222639506E+00
  5.828987975343E+00  5.863961903195E+00  5.899145674614E+00  5.934540548662E+00
  5.970147791954E+00  6.005968678706E+00  6.042004490778E+00  6.078256517723E+00
  6.114726056829E+00  6.151414413170E+00  6.188322899649E+00  6.225452837047E+00
  6.262805554069E+00  6.300382387394E+00  6.338184681718E+00  6.376213789808E+00
  6.414471072547E+00  6.452957898982E+00  6.491675646376E+00  6.530625700255E+00
  6.569809454456E+00  6.609228311183E+00  6.648883681050E+00  6.688776983136E+00
  6.728909645035E+00  6.769283102905E+00  6.809898801523E+00  6.850758194332E+00
  6.891862743498E+00  6.933213919959E+00  6.974813203479E+00  7.016662082699E+00
  7.058762055196E+00  7.101114627527E+00  7.143721315292E+00  7.186583643184E+00
  7.229703145043E+00  7.273081363913E+00  7.316719852097E+00  7.360620171209E+00
  7.404783892236E+00  7.449212595590E+00  7.493907871163E+00  7.538871318390E+00
  7.584104546301E+00  7.629609173578E+00  7.675386828620E+00  7.721439149592E+00
  7.767767784489E+00  7.814374391196E+00  7.861260637543E+00  7.908428201369E+00
  7.955878770577E+00  8.003614043200E+00  8.051635727459E+00  8.099945541824E+00
  8.148545215075E+00  8.197436486366E+00  8.246621105284E+00  8.296100831916E+00
  8.345877436907E+00  8.395952701528E+00  8.446328417738E+00  8.497006388244E+00
  8.547988426574E+00  8.599276357133E+00  8.650872015276E+00  8.702777247367E+00
  8.754993910852E+00  8.807523874317E+00  8.860369017563E+00  8.913531231668E+00
  8.967012419058E+00  9.020814493572E+00  9.074939380534E+00  9.129389016817E+00
  9.184165350918E+00  9.239270343023E+00  9.294705965082E+00  9.350474200872E+00
  9.406577046077E+00  9.463016508354E+00  9.519794607404E+00  9.576913375048E+00
  9.634374855299E+00  9.692181104430E+00  9.750334191057E+00  9.808836196203E+00
  9.867689213380E+00  9.926895348661E+00  9.986456720753E+00  1.004637546108E+01
  1.010665371384E+01  1.016729363613E+01  1.022829739794E+01  1.028966718233E+01
  1.035140518543E+01  1.041351361654E+01  1.047599469824E+01  1.053885066643E+01
  1.060208377042E+01  1.066569627305E+01  1.072969045069E+01  1.079406859339E+01
  1.085883300495E+01  1.092398600298E+01  1.098952991900E+01  1.105546709851E+01
  1.112179990110E+01  1.118853070051E+01  1.125566188471E+01  1.132319585602E+01
  1.139113503116E+01  1.145948184134E+01  1.152823873239E+01  1.159740816479E+01
  1.166699261378E+01  1.173699456946E+01  1.180741653687E+01  1.187826103610E+01
  1.194953060231E+01  1.202122778593E+01  1.209335515264E+01  1.216591528356E+01
  1.223891077526E+01  1.231234423991E+01  1.238621830535E+01  1.246053561518E+01
  1.253529882887E+01  1.261051062185E+01  1.268617368558E+01  1.276229072769E+01
  1.283886447206E+01  1.291589765889E+01  1.299339304484E+01  1.307135340311E+01
  1.314978152353E+01  1.322868021267E+01  1.330805229395E+01  1.338790060771E+01
  1.346822801136E+01  1.354903737943E+01  1.363033160370E+01  1.371211359332E+01
  1.379438627488E+01  1.387715259253E+01  1.396041550809E+01  1.404417800114E+01
  1.412844306914E+01  1.421321372756E+01  1.429849300992E+01  1.438428396798E+01
  1.447058967179E+01  1.455741320982E+01  1.464475768908E+01  1.473262623522E+01
  1.482102199263E+01  1.490994812458E+01  1.499940781333E+01  1.508940426021E+01
  1.517994068577E+01  1.527102032989E+01  1.536264645187E+01  1.545482233058E+01
  1.554755126456E+01  1.564083657215E+01  1.573468159158E+01  1.582908968113E+01
  1.592406421922E+01  1.601960860453E+01  1.611572625616E+01  1.621242061370E+01
  1.630969513738E+01  1.640755330820E+01  1.650599862805E+01  1.660503461982E+01
  1.670466482754E+01  1.680489281650E+01  1.690572217340E+01  1.700715650644E+01
  1.710919944548E+01  1.721185464216E+01  1.731512577001E+01  1.741901652463E+01
  1.752353062378E+01  1.762867180752E+01  1.773444383836E+01  1.784085050139E+01
  1.794789560440E+01  1.805558297803E+01  1.816391647590E+01  1.827289997475E+01
  1.838253737460E+01  1.849283259885E+01  1.860378959444E+01  1.871541233201E+01
  1.882770480600E+01  1.894067103484E+01  1.905431506105E+01  1.916864095141E+01
  1.928365279712E+01  1.939935471390E+01  1.951575084219E+01  1.963284534724E+01
  1.975064241932E+01  1.986914627384E+01  1.998836115148E+01  2.010829131839E+01
  2.022894106630E+01  2.035031471270E+01  2.047241660098E+01  2.059525110058E+01
  2.071882260718E+01  2.084313554283E+01  2.096819435608E+01  2.109400352222E+01
  2.122056754335E+01  2.134789094861E+01  2.147597829431E+01  2.160483416407E+01
  2.173446316906E+01  2.186486994807E+01  2.199605916776E+01  2.212803552277E+01
  2.226080373590E+01  2.239436855832E+01  2.252873476967E+01  2.266390717829E+01
  2.279989062136E+01  2.293668996508E+01  2.307431010487E+01  2.321275596550E+01
  2.335203250130E+01  2.349214469630E+01  2.363309756448E+01  2.377489614987E+01
  2.391754552677E+01  2.406105079993E+01  2.420541710473E+01  2.435064960736E+01
  2.449675350500E+01  2.464373402603E+01  2.479159643019E+01  2.494034600877E+01
  2.508998808482E+01  2.524052801333E+01  2.539197118141E+01  2.554432300850E+01
  2.569758894655E+01  2.585177448023E+01  2.600688512711E+01  2.616292643787E+01
  2.631990399650E+01  2.647782342048E+01  2.663669036100E+01  2.679651050317E+01
  2.695728956619E+01  2.711903330358E+01  2.728174750341E+01  2.744543798843E+01
  2.761011061636E+01  2.777577128005E+01  2.794242590773E+01  2.811008046318E+01
  2.827874094596E+01  2.844841339164E+01  2.861910387199E+01  2.879081849522E+01
  2.896356340619E+01  2.913734478663E+01  2.931216885535E+01  2.948804186848E+01
  2.966497011969E+01  2.984295994041E+01  3.002201770005E+01  3.020214980625E+01
  3.038336270509E+01  3.056566288132E+01  3.074905685861E+01  3.093355119976E+01
  3.111915250696E+01  3.130586742200E+01  3.149370262653E+01  3.168266484229E+01
  3.187276083134E+01  3.206399739633E+01  3.225638138071E+01  3.244991966899E+01
  3.264461918701E+01  3.284048690213E+01  3.303752982354E+01  3.323575500248E+01
  3.343516953250E+01  3.363578054969E+01  3.383759523299E+01  3.404062080439E+01
  3.424486452922E+01  3.445033371639E+01  3.465703571869E+01  3.486497793300E+01
  3.507416780060E+01  3.528461280740E+01  3.549632048425E+01  3.570929840715E+01
  3.592355419760E+01  3.613909552278E+01  3.635593009592E+01  3.657406567649E+01
  3.679351007055E+01  3.701427113098E+01  3.723635675776E+01  3.745977489831E+01
  3.768453354770E+01  3.791064074898E+01  3.813810459348E+01  3.836693322104E+01
  3.859713482036E+01  3.882871762929E+01  3.906168993506E+01  3.929606007467E+01
  3.953183643512E+01  3.976902745373E+01  4.000764161845E+01  4.024768746817E+01
  4.048917359297E+01  4.073210863453E+01  4.097650128634E+01  4.122236029406E+01
  4.146969445582E+01  4.171851262256E+01  4.196882369829E+01  4.222063664048E+01
  4.247396046032E+01  4.272880422309E+01  4.298517704842E+01  4.324308811072E+01
  4.350254663938E+01  4.376356191922E+01  4.402614329073E+01  4.429030015048E+01
  4.455604195138E+01
</grid-data>
</grid>
<valence-charge total-charge="17" is-unscreening-charge="yes"
 rescaled-to-z-pseudo="no">
<radfunc>
<data npts="797">
  1.027836564343E-02  1.028832707510E-02  1.032240530828E-02  1.039330749380E-02
  1.052102826473E-02  1.074059488315E-02  1.109015753733E-02  1.161407465692E-02
  1.239148470126E-02  1.346696260315E-02  1.493688061807E-02  1.684402725745E-02
  1.937716458304E-02  2.265892228180E-02  2.679980755934E-02  3.188145028332E-02
  3.793768577870E-02  4.493579738889E-02  5.373412671831E-02  6.357136153275E-02
  7.565589170997E-02  8.869334641810E-02  1.043380645149E-01  1.231038873531E-01
  1.425623554867E-01  1.653582642225E-01  1.920505075221E-01  2.232870514593E-01
  2.542435060073E-01  2.896272586706E-01  3.300478704793E-01  3.761927749121E-01
  4.288357506123E-01  4.782926675147E-01  5.334220481637E-01  5.948366334774E-01
  6.632077821725E-01  7.392695772781E-01  8.238229040978E-01  9.177394137138E-01
  1.000247339542E+00  1.089871936587E+00  1.187166280602E+00  1.292717128762E+00
  1.407145497221E+00  1.531106970220E+00  1.665291682780E+00  1.810423911716E+00
  1.967261202053E+00  2.136592947868E+00  2.319238338266E+00  2.516043570847E+00
  2.673462242924E+00  2.839708621318E+00  3.015161420220E+00  3.200202511309E+00
  3.395215185529E+00  3.600582171484E+00  3.816683392305E+00  4.043893442780E+00
  4.282578768719E+00  4.533094531039E+00  4.795781137845E+00  5.070960428997E+00
  5.358931499304E+00  5.659966148639E+00  5.974303950009E+00  6.302146929986E+00
  6.643653859965E+00  6.998934161628E+00  7.368041435624E+00  7.750966629190E+00
  8.147630865947E+00  8.557877969786E+00  8.981466724414E+00  9.271110284921E+00
  9.566413360684E+00  9.867231257560E+00  1.017339715945E+01  1.048472105510E+01
  1.080098867586E+01  1.112196045125E+01  1.144737049008E+01  1.177692559521E+01
  1.211030432100E+01  1.244715608284E+01  1.278710032909E+01  1.312972578623E+01
  1.347458978879E+01  1.382121770602E+01  1.416910247814E+01  1.451770427519E+01
  1.486645029240E+01  1.521473469594E+01  1.556191873351E+01  1.590733102458E+01
  1.625026804474E+01  1.658999481914E+01  1.692574583954E+01  1.725672621920E+01
  1.758211309939E+01  1.790105732076E+01  1.821268537160E+01  1.851610162411E+01
  1.881039086850E+01  1.909462115280E+01  1.936784693475E+01  1.962911254954E+01
  1.987745599516E+01  2.011191303378E+01  2.033152160504E+01  2.053532654345E+01
  2.072238458841E+01  2.089176967158E+01  2.104257846204E+01  2.117393614513E+01
  2.128500240649E+01  2.137497758764E+01  2.144310897485E+01  2.148869717785E+01
  2.151110255012E+01  2.150975159743E+01  2.148414331674E+01  2.143385540299E+01
  2.135855025728E+01  2.125798072625E+01  2.113199549927E+01  2.098054408796E+01
  2.080368131062E+01  2.060157120372E+01  2.037449028285E+01  2.012283007715E+01
  1.998793698876E+01  1.984709886387E+01  1.970039762121E+01  1.954792253392E+01
  1.938977020466E+01  1.922604452483E+01  1.905685661760E+01  1.888232476431E+01
  1.870257431409E+01  1.851773757637E+01  1.832795369613E+01  1.813336851177E+01
  1.793413439546E+01  1.773041007602E+01  1.752236044431E+01  1.731015634120E+01
  1.709397432832E+01  1.687399644184E+01  1.665040992940E+01  1.642340697073E+01
  1.619318438233E+01  1.595994330653E+01  1.572388888581E+01  1.548522992263E+01
  1.524417852579E+01  1.500094974391E+01  1.475576118687E+01  1.450883263622E+01
  1.426038564537E+01  1.401064313076E+01  1.375982895495E+01  1.350816750291E+01
  1.325588325259E+01  1.300320034114E+01  1.275034212804E+01  1.249753075645E+01
  1.224498671422E+01  1.199292839593E+01  1.174157166750E+01  1.149112943466E+01
  1.124181121695E+01  1.099382272859E+01  1.074736546778E+01  1.050263631592E+01
  1.025982714814E+01  1.001912445663E+01  9.780708988223E+00  9.544755397527E+00
  9.311431916963E+00  9.080900045020E+00  8.853314253895E+00  8.628821717687E+00
  8.407562062212E+00  8.189667137428E+00  7.975260813356E+00  7.764458800319E+00
  7.557368494178E+00  7.354088847169E+00  7.154710264813E+00  6.959314529274E+00
  6.767974749393E+00  6.580755337522E+00  6.397712013170E+00  6.218891833300E+00
  6.044333249045E+00  5.874066188447E+00  5.708112164716E+00  5.546484409362E+00
  5.389188029481E+00  5.236220188285E+00  5.087570307940E+00  4.943220293597E+00
  4.803144777451E+00  4.667311381555E+00  4.535680998015E+00  4.408208085164E+00
  4.284840978182E+00  4.165522212645E+00  4.050188859370E+00  3.938772868957E+00
  3.831201424335E+00  3.727397299675E+00  3.627279223967E+00  3.530762247625E+00
  3.437758110455E+00  3.348175609384E+00  3.261920964374E+00  3.178898181005E+00
  3.099009408265E+00  3.022155290141E+00  2.948235309725E+00  2.877148124569E+00
  2.808791892176E+00  2.743064584566E+00  2.679864290967E+00  2.619089507801E+00
  2.560639415214E+00  2.504414139515E+00  2.450315001009E+00  2.398244746791E+00
  2.348107768183E+00  2.299810302596E+00  2.253260619700E+00  2.208369191855E+00
  2.165048848872E+00  2.123214917234E+00  2.082785343982E+00  2.043680805532E+00
  2.005824801783E+00  1.969143735858E+00  1.933566979946E+00  1.899026927680E+00
  1.865459033556E+00  1.832801839899E+00  1.800996991914E+00  1.769989241346E+00
  1.739726439302E+00  1.710159518758E+00  1.681242467306E+00  1.652932290640E+00
  1.625188967316E+00  1.597975395280E+00  1.571257330647E+00  1.545003319219E+00
  1.519184621206E+00  1.493775129610E+00  1.468751282760E+00  1.444091971475E+00
  1.419778441187E+00  1.395794189399E+00  1.372124859145E+00  1.348758128867E+00
  1.325683599246E+00  1.302892677504E+00  1.280378380102E+00  1.258134812140E+00
  1.236156504443E+00  1.214438281235E+00  1.192975331439E+00  1.171763128131E+00
  1.150797408924E+00  1.130074149922E+00  1.109589553724E+00  1.089340083056E+00
  1.069322518851E+00  1.049533953841E+00  1.029971760063E+00  1.010633576986E+00
  9.915172925947E-01  9.726210261620E-01  9.539431114297E-01  9.354820803067E-01
  9.172366470964E-01  8.992056932552E-01  8.813882526860E-01  8.637834975678E-01
  8.463907247219E-01  8.292093425151E-01  8.122388582976E-01  7.954788663737E-01
  7.789290365016E-01  7.625891029191E-01  7.464588538895E-01  7.305381217616E-01
  7.148267735392E-01  6.993247019512E-01  6.840318170144E-01  6.689480380835E-01
  6.540732863755E-01  6.394074779617E-01  6.249505172174E-01  6.107022907170E-01
  5.966626615707E-01  5.828314641671E-01  5.692084993575E-01  5.557935300229E-01
  5.425862770357E-01  5.295864155991E-01  5.167935719511E-01  5.042073204230E-01
  4.918271808338E-01  4.796526162177E-01  4.676830308617E-01  4.559177686474E-01
  4.443561116800E-01  4.329972791949E-01  4.218404267269E-01  4.108846455307E-01
  4.001289622393E-01  3.895723387489E-01  3.792136723166E-01  3.690517958607E-01
  3.590854784498E-01  3.493134259709E-01  3.397342819631E-01  3.303466286074E-01
  3.211489878607E-01  3.121398227236E-01  3.033175386319E-01  2.946804849604E-01
  2.862269566312E-01  2.779551958157E-01  2.698633937205E-01  2.619496924503E-01
  2.542121869375E-01  2.466489269308E-01  2.392579190353E-01  2.320371287959E-01
  2.249844828173E-01  2.180978709134E-01  2.113751482795E-01  2.048141376809E-01
  1.984126316532E-01  1.921683947060E-01  1.860791655284E-01  1.801426591872E-01
  1.743565693173E-01  1.687185702962E-01  1.632263194010E-01  1.578774589432E-01
  1.526696183772E-01  1.476004163806E-01  1.426674629021E-01  1.378683611742E-01
  1.332007096892E-01  1.286621041351E-01  1.242501392901E-01  1.199624108727E-01
  1.157965173471E-01  1.117500616812E-01  1.078206530565E-01  1.040059085285E-01
  1.003034546358E-01  9.671092895944E-02  9.322598162780E-02  8.984627677046E-02
  8.656949391762E-02  8.339332934601E-02  8.031549737067E-02  7.733373158226E-02
  7.444578602999E-02  7.164943634993E-02  6.894248083883E-02  6.632274147355E-02
  6.378806487633E-02  6.133632322600E-02  5.896541511557E-02  5.667326635662E-02
  5.445783073073E-02  5.231709068868E-02  5.024905799776E-02  4.825177433799E-02
  4.632331184780E-02  4.446177361985E-02  4.266529414792E-02  4.093203972552E-02
  3.926020879721E-02  3.764803226350E-02  3.609377374033E-02  3.459572977409E-02
  3.315223001336E-02  3.176163733831E-02  3.042234794911E-02  2.913279141436E-02
  2.789143068089E-02  2.669676204611E-02  2.554731509429E-02  2.444165259799E-02
  2.337837038607E-02  2.235609717963E-02  2.137349439727E-02  2.042925593105E-02
  1.952210789458E-02  1.865080834471E-02  1.781414697820E-02  1.701094480482E-02
  1.624005379825E-02  1.550035652638E-02  1.479076576215E-02  1.411022407659E-02
  1.345770341524E-02  1.283220465949E-02  1.223275717399E-02  1.165841834159E-02
  1.110827308706E-02  1.058143339075E-02  1.007703779357E-02  9.594250894345E-03
  9.132262840718E-03  8.690288814777E-03  8.267568514383E-03  7.863365631297E-03
  7.476967327044E-03  7.107683707484E-03  6.754847296973E-03  6.417812512979E-03
  6.095955141948E-03  5.788671817197E-03  5.495379499544E-03  5.215514961363E-03
  4.948534274676E-03  4.693912303892E-03  4.451142203720E-03  4.219734922766E-03
  3.999218713282E-03  3.789138647477E-03  3.589056140772E-03  3.398548482359E-03
  3.217208373349E-03  3.044643472798E-03  2.880475951832E-03  2.724342056098E-03
  2.575891676684E-03  2.434787929675E-03  2.300706744450E-03  2.173336460806E-03
  2.052377434970E-03  1.937541654548E-03  1.828552362411E-03  1.725143689523E-03
  1.627060296688E-03  1.534057025169E-03  1.445898556121E-03  1.362359078778E-03
  1.283221967287E-03  1.208279466109E-03  1.137332383878E-03  1.070189795581E-03
  1.006668752965E-03  9.465940030109E-04  8.897977143468E-04  8.361192114629E-04
  7.854047165701E-04  7.375070989589E-04  6.922856317043E-04  6.496057555632E-04
  6.093388499085E-04  5.713620105464E-04  5.355578342617E-04  5.018142099366E-04
  4.700241160915E-04  4.400854246955E-04  4.119007110990E-04  3.853770699386E-04
  3.604259368725E-04  3.369629160017E-04  3.149076128381E-04  2.941834726821E-04
  2.747176242751E-04  2.564407285957E-04  2.392868326700E-04  2.231932282690E-04
  2.081003153718E-04  1.939514702704E-04  1.806929182005E-04  1.682736103799E-04
  1.566451053431E-04  1.457614544586E-04  1.355790915217E-04  1.260567263146E-04
  1.171552420297E-04  1.088375964531E-04  1.010687268063E-04  9.381545814920E-05
  8.704641524421E-05  8.073193778816E-05  7.484399891649E-05  6.935612688775E-05
  6.424332985754E-05  5.948202365222E-05  5.504996245452E-05  5.092617231453E-05
  4.709088740096E-05  4.352548890879E-05  4.021244654121E-05  3.713526248470E-05
  3.427841779776E-05  3.162732113501E-05  2.916825972997E-05  2.688835256080E-05
  2.477550562528E-05  2.281836925205E-05  2.100629737704E-05  1.932930871518E-05
  1.777804975896E-05  1.634375953693E-05  1.501823606657E-05  1.379380443748E-05
  1.266328646231E-05  1.161997183433E-05  1.065759073206E-05  9.770287812734E-06
  8.952597538162E-06  8.199420777679E-06  7.506002634727E-06  6.867911444895E-06
  6.281018894827E-06  5.741481212918E-06  5.245721384156E-06  4.790412343012E-06
  4.372461099706E-06  3.988993756662E-06  3.637341373405E-06  3.315026639583E-06
  3.019751317220E-06  2.749384414673E-06  2.501951056183E-06  2.275622012216E-06
  2.068703857158E-06  1.879629722192E-06  1.706950612500E-06  1.549327259157E-06
  1.405522477310E-06  1.274394003450E-06  1.154887785709E-06  1.046031702297E-06
  9.469296842445E-07  8.567562197460E-07  7.747512183818E-07  7.002152145557E-07
  6.325048904327E-07  5.710288996201E-07  5.152439737470E-07  4.646512949811E-07
  4.187931183730E-07  3.772496287400E-07  3.396360175896E-07  3.055997663446E-07
  2.748181228618E-07  2.469957589328E-07  2.218625971329E-07  1.991717960217E-07
  1.786978833173E-07  1.602350272546E-07  1.435954368972E-07  1.286078827120E-07
  1.151163292251E-07  1.029786720625E-07  9.206557214639E-08  8.225938025460E-08
  7.345314557014E-08  6.554970224571E-08  5.846082838271E-08  5.210647218208E-08