<?xml version="1.0" encoding="UTF-8" ?>
<psml version="1.1" energy_unit="hartree" length_unit="bohr"
 uuid="87c54110-c73c-11ed-493c-942a9dfd24ff"
 xmlns="http://esl.cecam.org/PSML/ns/1.1">
<provenance creator="ONCVPSP-4.0.1+psml-4.0.1-76 (scalar-relativistic)"
 date="2023-03-20">
<annotation action="semilocal-pseudopotential-generation"
 action-cont="projectors-generation" />
<input-file name="oncvpsp-input">
<![CDATA[# atsym z nc nv iexc psfile
I 53 6 5 4 both
# n l f
1 0 2.0
2 0 2.0
2 1 6.0
3 0 2.0
3 1 6.0
3 2 10.0
4 0 2.0
4 1 6.0
4 2 10.0
5 0 2.0
5 1 5.0
# lmax
3
# l rc ep ncon nbas qcut
0 1.4 0.0 4 8 9.4
1 1.4 0.0 4 8 9.6
2 1.4 0.0 4 8 10.6
3 1.75 0.05 4 8 6.0
# lloc lpopt rc5 dvloc0
4 5 1.2 0.0
# l nproj debl
0 2 1.0
1 2 1.0
2 2 2.5
3 2 2.0
# icmod fcfact rcfact
3 5.0 1.5
# epsh1 epsh2 depsh
-12.0 12.0 0.02
# rlmax drl
6.0 0.01
 0
]]>
</input-file>
</provenance>
<pseudo-atom-spec atomic-label="I" atomic-number="53" z-pseudo="25"
 flavor="Hamann&apos;s oncvpsp" relativity="scalar" spin-dft="no"
 core-corrections="yes">
<annotation pseudo-energy="-299.037053321" cutoff_hint_low="36"
 cutoff_hint_normal="38" cutoff_hint_high="40" />
<exchange-correlation>
<annotation oncvpsp-xc-code="4" oncvpsp-xc-type="GGA -- Perdew-Burke-Ernzerhof" />
<libxc-info number-of-functionals="2">
<functional name="Perdew, Burke &amp; Ernzerhof (GGA)" type="exchange" id="101" />
<functional name="Perdew, Burke &amp; Ernzerhof (GGA)" type="correlation"
 id="130" />
</libxc-info>
</exchange-correlation>
<valence-configuration total-valence-charge="25">
<shell n="4" l="s" occupation="2" />
<shell n="4" l="p" occupation="6" />
<shell n="4" l="d" occupation="10" />
<shell n="5" l="s" occupation="2" />
<shell n="5" l="p" occupation="5" />
</valence-configuration>
</pseudo-atom-spec>
<grid npts="797">
<annotation type="sampled from oncvpsp log grid"
 recipe="r(i:1..N) = r1*exp(a*(i-1)) + r=0; resampled"
 recipe-cont="r1: scale; a: step" scale="0.943396226415E-05"
 step="0.598207167755E-02" delta="0.500000000000E-02" rmax="44.5560419514" />
<grid-data>
  0.000000000000E+00  5.011594338128E-03  1.003094094095E-02  1.506622199765E-02
  2.007739840300E-02  2.520175030298E-02  3.033668391779E-02  3.544178652072E-02
  4.066953078713E-02  4.583832888381E-02  5.104961007715E-02  5.617720408582E-02
  6.145112408536E-02  6.681924460983E-02  7.222296454539E-02  7.759809857209E-02
  8.287601637686E-02  8.798500737110E-02  9.340894821597E-02  9.857579957367E-02
  1.040284517402E-01  1.091279459141E-01  1.144774182469E-01  1.200891227146E-01
  1.252245665860E-01  1.305796205534E-01  1.361636759361E-01  1.419865256605E-01
  1.471753294568E-01  1.525537546605E-01  1.581287308608E-01  1.639074408840E-01
  1.698973300481E-01  1.750557810688E-01  1.803708538383E-01  1.858473037320E-01
  1.914900305093E-01  1.973040826963E-01  2.032946621039E-01  2.094671284807E-01
  2.145397657151E-01  2.197352463221E-01  2.250565451830E-01  2.305067092217E-01
  2.360888591488E-01  2.418061912486E-01  2.476619792098E-01  2.536595759993E-01
  2.598024157823E-01  2.660940158889E-01  2.725379788278E-01  2.791379943491E-01
  2.841926854446E-01  2.893389079782E-01  2.945783194211E-01  2.999126072581E-01
  3.053434895314E-01  3.108727153941E-01  3.165020656729E-01  3.222333534426E-01
  3.280684246091E-01  3.340091585047E-01  3.400574684929E-01  3.462153025848E-01
  3.524846440665E-01  3.588675121379E-01  3.653659625631E-01  3.719820883322E-01
  3.787180203359E-01  3.855759280512E-01  3.925580202408E-01  3.996665456638E-01
  4.069037938007E-01  4.142720955900E-01  4.217738241798E-01  4.268502939276E-01
  4.319878640653E-01  4.371872699972E-01  4.424492559789E-01  4.477745752238E-01
  4.531639900112E-01  4.586182717950E-01  4.641382013143E-01  4.697245687054E-01
  4.753781736143E-01  4.810998253119E-01  4.868903428094E-01  4.927505549754E-01
  4.986813006551E-01  5.046834287898E-01  5.107577985387E-01  5.169052794019E-01
  5.231267513448E-01  5.294231049240E-01  5.357952414149E-01  5.422440729405E-01
  5.487705226024E-01  5.553755246125E-01  5.620600244267E-01  5.688249788807E-01
  5.756713563265E-01  5.826001367713E-01  5.896123120174E-01  5.967088858049E-01
  6.038908739544E-01  6.111593045134E-01  6.185152179025E-01  6.259596670651E-01
  6.334937176179E-01  6.411184480032E-01  6.488349496434E-01  6.566443270973E-01
  6.645476982182E-01  6.725461943140E-01  6.806409603087E-01  6.888331549070E-01
  6.971239507595E-01  7.055145346308E-01  7.140061075696E-01  7.225998850803E-01
  7.312970972972E-01  7.400989891602E-01  7.490068205938E-01  7.580218666864E-01
  7.671454178739E-01  7.763787801234E-01  7.857232751210E-01  7.951802404603E-01
  8.047510298345E-01  8.144370132296E-01  8.242395771208E-01  8.341601246710E-01
  8.391650854191E-01  8.442000759316E-01  8.492652763872E-01  8.543608680455E-01
  8.594870332538E-01  8.646439554533E-01  8.698318191860E-01  8.750508101011E-01
  8.803011149617E-01  8.855829216515E-01  8.908964191814E-01  8.962417976965E-01
  9.016192484827E-01  9.070289639736E-01  9.124711377574E-01  9.179459645840E-01
  9.234536403715E-01  9.289943622137E-01  9.345683283870E-01  9.401757383573E-01
  9.458167927874E-01  9.514916935442E-01  9.572006437054E-01  9.629438475677E-01
  9.687215106531E-01  9.745338397170E-01  9.803810427553E-01  9.862633290118E-01
  9.921809089859E-01  9.981339944398E-01  1.004122798406E+00  1.010147535197E+00
  1.016208420408E+00  1.022305670931E+00  1.028439504956E+00  1.034610141986E+00
  1.040817802838E+00  1.047062709655E+00  1.053345085913E+00  1.059665156428E+00
  1.066023147367E+00  1.072419286251E+00  1.078853801968E+00  1.085326924780E+00
  1.091838886329E+00  1.098389919647E+00  1.104980259165E+00  1.111610140720E+00
  1.118279801564E+00  1.124989480373E+00  1.131739417256E+00  1.138529853759E+00
  1.145361032882E+00  1.152233199079E+00  1.159146598274E+00  1.166101477863E+00
  1.173098086730E+00  1.180136675251E+00  1.187217495302E+00  1.194340800274E+00
  1.201506845076E+00  1.208715886146E+00  1.215968181463E+00  1.223263990552E+00
  1.230603574495E+00  1.237987195942E+00  1.245415119118E+00  1.252887609833E+00
  1.260404935492E+00  1.267967365104E+00  1.275575169295E+00  1.283228620311E+00
  1.290927992033E+00  1.298673559985E+00  1.306465601345E+00  1.314304394953E+00
  1.322190221323E+00  1.330123362651E+00  1.338104102826E+00  1.346132727443E+00
  1.354209523808E+00  1.362334780951E+00  1.370508789637E+00  1.378731842374E+00
  1.387004233429E+00  1.395326258829E+00  1.403698216382E+00  1.412120405681E+00
  1.420593128115E+00  1.429116686883E+00  1.437691387005E+00  1.446317535327E+00
  1.454995440539E+00  1.463725413182E+00  1.472507765661E+00  1.481342812255E+00
  1.490230869128E+00  1.499172254343E+00  1.508167287869E+00  1.517216291596E+00
  1.526319589346E+00  1.535477506882E+00  1.544690371923E+00  1.553958514155E+00
  1.563282265240E+00  1.572661958831E+00  1.582097930584E+00  1.591590518168E+00
  1.601140061277E+00  1.610746901644E+00  1.620411383054E+00  1.630133851353E+00
  1.639914654461E+00  1.649754142388E+00  1.659652667242E+00  1.669610583245E+00
  1.679628246745E+00  1.689706016225E+00  1.699844252323E+00  1.710043317837E+00
  1.720303577744E+00  1.730625399210E+00  1.741009151605E+00  1.751455206515E+00
  1.761963937754E+00  1.772535721381E+00  1.783170935709E+00  1.793869961323E+00
  1.804633181091E+00  1.815460980178E+00  1.826353746059E+00  1.837311868535E+00
  1.848335739746E+00  1.859425754185E+00  1.870582308710E+00  1.881805802562E+00
  1.893096637377E+00  1.904455217202E+00  1.915881948505E+00  1.927377240196E+00
  1.938941503637E+00  1.950575152659E+00  1.962278603575E+00  1.974052275196E+00
  1.985896588847E+00  1.997811968381E+00  2.009798840191E+00  2.021857633232E+00
  2.033988779031E+00  2.046192711706E+00  2.058469867976E+00  2.070820687184E+00
  2.083245611307E+00  2.095745084975E+00  2.108319555484E+00  2.120969472817E+00
  2.133695289654E+00  2.146497461392E+00  2.159376446161E+00  2.172332704838E+00
  2.185366701067E+00  2.198478901273E+00  2.211669774681E+00  2.224939793329E+00
  2.238289432089E+00  2.251719168681E+00  2.265229483693E+00  2.278820860595E+00
  2.292493785759E+00  2.306248748474E+00  2.320086240964E+00  2.334006758410E+00
  2.348010798961E+00  2.362098863754E+00  2.376271456937E+00  2.390529085679E+00
  2.404872260193E+00  2.419301493754E+00  2.433817302716E+00  2.448420206533E+00
  2.463110727772E+00  2.477889392138E+00  2.492756728491E+00  2.507713268862E+00
  2.522759548475E+00  2.537896105766E+00  2.553123482401E+00  2.568442223295E+00
  2.583852876635E+00  2.599355993895E+00  2.614952129858E+00  2.630641842637E+00
  2.646425693693E+00  2.662304247855E+00  2.678278073342E+00  2.694347741782E+00
  2.710513828233E+00  2.726776911203E+00  2.743137572670E+00  2.759596398106E+00
  2.776153976494E+00  2.792810900353E+00  2.809567765756E+00  2.826425172350E+00
  2.843383723384E+00  2.860444025724E+00  2.877606689879E+00  2.894872330018E+00
  2.912241563998E+00  2.929715013382E+00  2.947293303462E+00  2.964977063283E+00
  2.982766925663E+00  3.000663527217E+00  3.018667508380E+00  3.036779513431E+00
  3.055000190511E+00  3.073330191654E+00  3.091770172804E+00  3.110320793841E+00
  3.128982718604E+00  3.147756614916E+00  3.166643154605E+00  3.185643013533E+00
  3.204756871614E+00  3.223985412844E+00  3.243329325321E+00  3.262789301273E+00
  3.282366037080E+00  3.302060233303E+00  3.321872594702E+00  3.341803830271E+00
  3.361854653252E+00  3.382025781172E+00  3.402317935859E+00  3.422731843474E+00
  3.443268234535E+00  3.463927843942E+00  3.484711411006E+00  3.505619679472E+00
  3.526653397549E+00  3.547813317934E+00  3.569100197841E+00  3.590514799029E+00
  3.612057887823E+00  3.633730235150E+00  3.655532616561E+00  3.677465812260E+00
  3.699530607133E+00  3.721727790776E+00  3.744058157521E+00  3.766522506466E+00
  3.789121641505E+00  3.811856371354E+00  3.834727509582E+00  3.857735874639E+00
  3.880882289887E+00  3.904167583627E+00  3.927592589128E+00  3.951158144663E+00
  3.974865093531E+00  3.998714284092E+00  4.022706569797E+00  4.046842809216E+00
  4.071123866071E+00  4.095550609267E+00  4.120123912923E+00  4.144844656401E+00
  4.169713724339E+00  4.194732006685E+00  4.219900398725E+00  4.245219801117E+00
  4.270691119924E+00  4.296315266644E+00  4.322093158244E+00  4.348025717193E+00
  4.374113871496E+00  4.400358554725E+00  4.426760706054E+00  4.453321270290E+00
  4.480041197912E+00  4.506921445099E+00  4.533962973770E+00  4.561166751612E+00
  4.588533752122E+00  4.616064954635E+00  4.643761344362E+00  4.671623912429E+00
  4.699653655903E+00  4.727851577839E+00  4.756218687306E+00  4.784755999429E+00
  4.813464535426E+00  4.842345322639E+00  4.871399394574E+00  4.900627790942E+00
  4.930031557688E+00  4.959611747034E+00  4.989369417516E+00  5.019305634021E+00
  5.049421467825E+00  5.079717996632E+00  5.110196304612E+00  5.140857482440E+00
  5.171702627334E+00  5.202732843098E+00  5.233949240157E+00  5.265352935598E+00
  5.296945053211E+00  5.328726723531E+00  5.360699083872E+00  5.392863278375E+00
  5.425220458045E+00  5.457771780793E+00  5.490518411478E+00  5.523461521947E+00
  5.556602291079E+00  5.589941904825E+00  5.623481556254E+00  5.657222445592E+00
  5.691165780265E+00  5.725312774947E+00  5.759664651597E+00  5.794222639506E+00
  5.828987975343E+00  5.863961903195E+00  5.899145674614E+00  5.934540548662E+00
  5.970147791954E+00  6.005968678706E+00  6.042004490778E+00  6.078256517723E+00
  6.114726056829E+00  6.151414413170E+00  6.188322899649E+00  6.225452837047E+00
  6.262805554069E+00  6.300382387394E+00  6.338184681718E+00  6.376213789808E+00
  6.414471072547E+00  6.452957898982E+00  6.491675646376E+00  6.530625700255E+00
  6.569809454456E+00  6.609228311183E+00  6.648883681050E+00  6.688776983136E+00
  6.728909645035E+00  6.769283102905E+00  6.809898801523E+00  6.850758194332E+00
  6.891862743498E+00  6.933213919959E+00  6.974813203479E+00  7.016662082699E+00
  7.058762055196E+00  7.101114627527E+00  7.143721315292E+00  7.186583643184E+00
  7.229703145043E+00  7.273081363913E+00  7.316719852097E+00  7.360620171209E+00
  7.404783892236E+00  7.449212595590E+00  7.493907871163E+00  7.538871318390E+00
  7.584104546301E+00  7.629609173578E+00  7.675386828620E+00  7.721439149592E+00
  7.767767784489E+00  7.814374391196E+00  7.861260637543E+00  7.908428201369E+00
  7.955878770577E+00  8.003614043200E+00  8.051635727459E+00  8.099945541824E+00
  8.148545215075E+00  8.197436486366E+00  8.246621105284E+00  8.296100831916E+00
  8.345877436907E+00  8.395952701528E+00  8.446328417738E+00  8.497006388244E+00
  8.547988426574E+00  8.599276357133E+00  8.650872015276E+00  8.702777247367E+00
  8.754993910852E+00  8.807523874317E+00  8.860369017563E+00  8.913531231668E+00
  8.967012419058E+00  9.020814493572E+00  9.074939380534E+00  9.129389016817E+00
  9.184165350918E+00  9.239270343023E+00  9.294705965082E+00  9.350474200872E+00
  9.406577046077E+00  9.463016508354E+00  9.519794607404E+00  9.576913375048E+00
  9.634374855299E+00  9.692181104430E+00  9.750334191057E+00  9.808836196203E+00
  9.867689213380E+00  9.926895348661E+00  9.986456720753E+00  1.004637546108E+01
  1.010665371384E+01  1.016729363613E+01  1.022829739794E+01  1.028966718233E+01
  1.035140518543E+01  1.041351361654E+01  1.047599469824E+01  1.053885066643E+01
  1.060208377042E+01  1.066569627305E+01  1.072969045069E+01  1.079406859339E+01
  1.085883300495E+01  1.092398600298E+01  1.098952991900E+01  1.105546709851E+01
  1.112179990110E+01  1.118853070051E+01  1.125566188471E+01  1.132319585602E+01
  1.139113503116E+01  1.145948184134E+01  1.152823873239E+01  1.159740816479E+01
  1.166699261378E+01  1.173699456946E+01  1.180741653687E+01  1.187826103610E+01
  1.194953060231E+01  1.202122778593E+01  1.209335515264E+01  1.216591528356E+01
  1.223891077526E+01  1.231234423991E+01  1.238621830535E+01  1.246053561518E+01
  1.253529882887E+01  1.261051062185E+01  1.268617368558E+01  1.276229072769E+01
  1.283886447206E+01  1.291589765889E+01  1.299339304484E+01  1.307135340311E+01
  1.314978152353E+01  1.322868021267E+01  1.330805229395E+01  1.338790060771E+01
  1.346822801136E+01  1.354903737943E+01  1.363033160370E+01  1.371211359332E+01
  1.379438627488E+01  1.387715259253E+01  1.396041550809E+01  1.404417800114E+01
  1.412844306914E+01  1.421321372756E+01  1.429849300992E+01  1.438428396798E+01
  1.447058967179E+01  1.455741320982E+01  1.464475768908E+01  1.473262623522E+01
  1.482102199263E+01  1.490994812458E+01  1.499940781333E+01  1.508940426021E+01
  1.517994068577E+01  1.527102032989E+01  1.536264645187E+01  1.545482233058E+01
  1.554755126456E+01  1.564083657215E+01  1.573468159158E+01  1.582908968113E+01
  1.592406421922E+01  1.601960860453E+01  1.611572625616E+01  1.621242061370E+01
  1.630969513738E+01  1.640755330820E+01  1.650599862805E+01  1.660503461982E+01
  1.670466482754E+01  1.680489281650E+01  1.690572217340E+01  1.700715650644E+01
  1.710919944548E+01  1.721185464216E+01  1.731512577001E+01  1.741901652463E+01
  1.752353062378E+01  1.762867180752E+01  1.773444383836E+01  1.784085050139E+01
  1.794789560440E+01  1.805558297803E+01  1.816391647590E+01  1.827289997475E+01
  1.838253737460E+01  1.849283259885E+01  1.860378959444E+01  1.871541233201E+01
  1.882770480600E+01  1.894067103484E+01  1.905431506105E+01  1.916864095141E+01
  1.928365279712E+01  1.939935471390E+01  1.951575084219E+01  1.963284534724E+01
  1.975064241932E+01  1.986914627384E+01  1.998836115148E+01  2.010829131839E+01
  2.022894106630E+01  2.035031471270E+01  2.047241660098E+01  2.059525110058E+01
  2.071882260718E+01  2.084313554283E+01  2.096819435608E+01  2.109400352222E+01
  2.122056754335E+01  2.134789094861E+01  2.147597829431E+01  2.160483416407E+01
  2.173446316906E+01  2.186486994807E+01  2.199605916776E+01  2.212803552277E+01
  2.226080373590E+01  2.239436855832E+01  2.252873476967E+01  2.266390717829E+01
  2.279989062136E+01  2.293668996508E+01  2.307431010487E+01  2.321275596550E+01
  2.335203250130E+01  2.349214469630E+01  2.363309756448E+01  2.377489614987E+01
  2.391754552677E+01  2.406105079993E+01  2.420541710473E+01  2.435064960736E+01
  2.449675350500E+01  2.464373402603E+01  2.479159643019E+01  2.494034600877E+01
  2.508998808482E+01  2.524052801333E+01  2.539197118141E+01  2.554432300850E+01
  2.569758894655E+01  2.585177448023E+01  2.600688512711E+01  2.616292643787E+01
  2.631990399650E+01  2.647782342048E+01  2.663669036100E+01  2.679651050317E+01
  2.695728956619E+01  2.711903330358E+01  2.728174750341E+01  2.744543798843E+01
  2.761011061636E+01  2.777577128005E+01  2.794242590773E+01  2.811008046318E+01
  2.827874094596E+01  2.844841339164E+01  2.861910387199E+01  2.879081849522E+01
  2.896356340619E+01  2.913734478663E+01  2.931216885535E+01  2.948804186848E+01
  2.966497011969E+01  2.984295994041E+01  3.002201770005E+01  3.020214980625E+01
  3.038336270509E+01  3.056566288132E+01  3.074905685861E+01  3.093355119976E+01
  3.111915250696E+01  3.130586742200E+01  3.149370262653E+01  3.168266484229E+01
  3.187276083134E+01  3.206399739633E+01  3.225638138071E+01  3.244991966899E+01
  3.264461918701E+01  3.284048690213E+01  3.303752982354E+01  3.323575500248E+01
  3.343516953250E+01  3.363578054969E+01  3.383759523299E+01  3.404062080439E+01
  3.424486452922E+01  3.445033371639E+01  3.465703571869E+01  3.486497793300E+01
  3.507416780060E+01  3.528461280740E+01  3.549632048425E+01  3.570929840715E+01
  3.592355419760E+01  3.613909552278E+01  3.635593009592E+01  3.657406567649E+01
  3.679351007055E+01  3.701427113098E+01  3.723635675776E+01  3.745977489831E+01
  3.768453354770E+01  3.791064074898E+01  3.813810459348E+01  3.836693322104E+01
  3.859713482036E+01  3.882871762929E+01  3.906168993506E+01  3.929606007467E+01
  3.953183643512E+01  3.976902745373E+01  4.000764161845E+01  4.024768746817E+01
  4.048917359297E+01  4.073210863453E+01  4.097650128634E+01  4.122236029406E+01
  4.146969445582E+01  4.171851262256E+01  4.196882369829E+01  4.222063664048E+01
  4.247396046032E+01  4.272880422309E+01  4.298517704842E+01  4.324308811072E+01
  4.350254663938E+01  4.376356191922E+01  4.402614329073E+01  4.429030015048E+01
  4.455604195138E+01
</grid-data>
</grid>
<valence-charge total-charge="25" is-unscreening-charge="yes"
 rescaled-to-z-pseudo="no">
<radfunc>
<data npts="797">
  1.732458383498E+01  1.733196605038E+01  1.735415831698E+01  1.739130147003E+01
  1.744306350948E+01  1.751125873134E+01  1.759507575725E+01  1.769376575056E+01
  1.781069452934E+01  1.794208552579E+01  1.809043452105E+01  1.825195297578E+01
  1.843416043514E+01  1.863635061405E+01  1.885690357458E+01  1.909320451115E+01
  1.934161321470E+01  1.959749506621E+01  1.988570785144E+01  2.017606449924E+01
  2.049913842299E+01  2.081669468869E+01  2.116573580602E+01  2.154929454944E+01
  2.191580869606E+01  2.231365323683E+01  2.274538026898E+01  2.321371578088E+01
  2.364647884691E+01  2.411019817180E+01  2.460689770780E+01  2.513869080541E+01
  2.570777395737E+01  2.621213138358E+01  2.674530710721E+01  2.730867063298E+01
  2.790360549769E+01  2.853149863463E+01  2.919372738150E+01  2.989164378239E+01
  3.047655299641E+01  3.108578092824E+01  3.171993229640E+01  3.237956669989E+01
  3.306518780491E+01  3.377723119739E+01  3.451605079975E+01  3.528190375284E+01
  3.607493366949E+01  3.689515217551E+01  3.774241866731E+01  3.861641823399E+01
  3.928916096260E+01  3.997635904451E+01  4.067763719037E+01  4.139253594753E+01
  4.212050459090E+01  4.286089374238E+01  4.361294774955E+01  4.437579686320E+01
  4.514844926188E+01  4.592978298257E+01  4.671853782717E+01  4.751330732733E+01
  4.831253086288E+01  4.911448604361E+01  4.991728147891E+01  5.071885007531E+01
  5.151694301838E+01  5.230912461152E+01  5.309276816071E+01  5.386505311023E+01
  5.462296364937E+01  5.536328902430E+01  5.608262580088E+01  5.654875722115E+01
  5.700285851022E+01  5.744378570255E+01  5.787036164399E+01  5.828137772383E+01
  5.867559589177E+01  5.905175097378E+01  5.940855330009E+01  5.974469165753E+01
  6.005883657714E+01  6.034964396652E+01  6.061575909463E+01  6.085582093451E+01
  6.106846686743E+01  6.125233774898E+01  6.140608333486E+01  6.152836806096E+01
  6.161787716864E+01  6.167332316230E+01  6.169345258247E+01  6.167705307282E+01
  6.162296071535E+01  6.153006760280E+01  6.139732961254E+01  6.122377434086E+01
  6.100850915155E+01  6.075072928717E+01  6.044972598639E+01  6.010489454546E+01
  5.971574225714E+01  5.928189615579E+01  5.880311049281E+01  5.827927386332E+01
  5.771041590133E+01  5.709671345848E+01  5.643849617971E+01  5.573625138821E+01
  5.499062819267E+01  5.420244073083E+01  5.337267046606E+01  5.250246745761E+01
  5.159315053020E+01  5.064620627536E+01  4.966328682498E+01  4.864620634671E+01
  4.759693622224E+01  4.651759888128E+01  4.541046027787E+01  4.427792101048E+01
  4.312250610299E+01  4.194685348057E+01  4.075370119196E+01  3.954587344730E+01
  3.832626555917E+01  3.709782789234E+01  3.586354894551E+01  3.462643770527E+01
  3.400776141140E+01  3.338950542867E+01  3.277204346389E+01  3.215574702516E+01
  3.154098483117E+01  3.092812222174E+01  3.031752057115E+01  2.970953670591E+01
  2.910452232860E+01  2.850282344948E+01  2.790477982748E+01  2.731072442219E+01
  2.672098285872E+01  2.613587290671E+01  2.555570397548E+01  2.498077662661E+01
  2.441138210574E+01  2.384780189488E+01  2.329030728693E+01  2.273915898358E+01
  2.219460671816E+01  2.165688890450E+01  2.112623231321E+01  2.060285177627E+01
  2.008694992124E+01  1.957871693566E+01  1.907833036288E+01  1.858595492966E+01
  1.810174240644E+01  1.762583150061E+01  1.715834778323E+01  1.669940364946E+01
  1.624909831275E+01  1.580751783284E+01  1.537473517755E+01  1.495081031776E+01
  1.453579035561E+01  1.412970968502E+01  1.373259018410E+01  1.334444143845E+01
  1.296526099465E+01  1.259503464268E+01  1.223373672618E+01  1.188133047922E+01
  1.153776838825E+01  1.120299257755E+01  1.087693521669E+01  1.055951894821E+01
  1.025065733377E+01  9.950255316805E+00  9.658209699765E+00  9.374409633974E+00
  9.098737119945E+00  8.831067516113E+00  8.571270053818E+00  8.319208356386E+00
  8.074740960157E+00  7.837721835276E+00  7.608000904134E+00  7.385424555317E+00
  7.169836151003E+00  6.961076525775E+00  6.758984474884E+00  6.563397230051E+00
  6.374150920991E+00  6.191081020918E+00  6.014022774457E+00  5.842811606439E+00
  5.677283510230E+00  5.517275414356E+00  5.362625526320E+00  5.213173652677E+00
  5.068761494571E+00  4.929232918115E+00  4.794434199140E+00  4.664214242047E+00
  4.538424772630E+00  4.416920504951E+00  4.299559282410E+00  4.186202192925E+00
  4.076713658930E+00  3.970961505346E+00  3.868817006326E+00  3.770154908429E+00
  3.674853433037E+00  3.582794259250E+00  3.493862488954E+00  3.407946548345E+00
  3.324937889703E+00  3.244730589826E+00  3.167221374764E+00  3.092309615431E+00
  3.019897332864E+00  2.949889196336E+00  2.882192518080E+00  2.816717244270E+00
  2.753375942538E+00  2.692083786209E+00  2.632758535447E+00  2.575320515490E+00
  2.519692592155E+00  2.465800144759E+00  2.413571036644E+00  2.362935583422E+00
  2.313826519113E+00  2.266178960306E+00  2.219930368475E+00  2.175020510592E+00
  2.131391418151E+00  2.088987344746E+00  2.047754722316E+00  2.007642116178E+00
  1.968600178972E+00  1.930581603641E+00  1.893541075552E+00  1.857435223877E+00
  1.822222572360E+00  1.787863489556E+00  1.754320138684E+00  1.721556427170E+00
  1.689537956004E+00  1.658231969000E+00  1.627607302072E+00  1.597634332595E+00
  1.568284928962E+00  1.539532400412E+00  1.511351447209E+00  1.483718111246E+00
  1.456609727158E+00  1.430004873984E+00  1.403883327467E+00  1.378226013029E+00
  1.353014959482E+00  1.328233253512E+00  1.303864994997E+00  1.279895253174E+00
  1.256310023702E+00  1.233096186656E+00  1.210241465463E+00  1.187734386812E+00
  1.165564241556E+00  1.143721046627E+00  1.122195507958E+00  1.100978984449E+00
  1.080063452965E+00  1.059441474371E+00  1.039106160622E+00  1.019051142891E+00
  9.992705407458E-01  9.797589323595E-01  9.605113257634E-01  9.415231311225E-01
  9.227901340337E-01  9.043084698317E-01  8.860745988957E-01  8.680852829407E-01
  8.503375622836E-01  8.328287340667E-01  8.155563314254E-01  7.985181035823E-01
  7.817119968526E-01  7.651361365410E-01  7.487888097132E-01  7.326684488229E-01
  7.167736161745E-01  7.011029892016E-01  6.856553465418E-01  6.704295548860E-01
  6.554245565825E-01  6.406393579738E-01  6.260730184454E-01  6.117246401643E-01
  5.975933584870E-01  5.836783330138E-01  5.699787392688E-01  5.564937609831E-01
  5.432225829609E-01  5.301643845055E-01  5.173183333846E-01  5.046835803159E-01
  4.922592539418E-01  4.800444562918E-01  4.680382586932E-01  4.562396981187E-01
  4.446477739498E-01  4.332614451363E-01  4.220796277314E-01  4.111011927857E-01
  4.003249645791E-01  3.897497191745E-01  3.793741832740E-01  3.691970333616E-01
  3.592168951146E-01  3.494323430672E-01  3.398419005119E-01  3.304440396205E-01
  3.212371817724E-01  3.122196980738E-01  3.033899100549E-01  2.947460905302E-01
  2.862864646104E-01  2.780092108525E-01  2.699124625347E-01  2.619943090477E-01
  2.542527973873E-01  2.466859337413E-01  2.392916851572E-01  2.320679812837E-01
  2.250127161747E-01  2.181237501487E-01  2.113989116935E-01  2.048359994091E-01
  1.984327839825E-01  1.921870101841E-01  1.860963988956E-01  1.801586490966E-01
  1.743714399328E-01  1.687324327327E-01  1.632392730302E-01  1.578895925775E-01
  1.526810113422E-01  1.476111394861E-01  1.426775793194E-01  1.378779272300E-01
  1.332097755818E-01  1.286707145809E-01  1.242583341060E-01  1.199702255011E-01
  1.158039833282E-01  1.117572070775E-01  1.078275028347E-01  1.040124849014E-01
  1.003097773699E-01  9.671701564968E-02  9.323184794401E-02  8.985193667740E-02
  8.657495987164E-02  8.339861247058E-02  8.032060761273E-02  7.733867785153E-02
  7.445057632279E-02  7.165407785920E-02  6.894698005176E-02  6.632710425808E-02
  6.379229655765E-02  6.134042865419E-02  5.896939872533E-02  5.667713221981E-02
  5.446158260264E-02  5.232073204865E-02  5.025259208481E-02  4.825520418197E-02
  4.632664029658E-02  4.446500336306E-02  4.266842773753E-02  4.093507959373E-02
  3.926315727192E-02  3.765089158163E-02  3.609654605926E-02  3.459841718151E-02
  3.315483453560E-02  3.176416094751E-02  3.042479256921E-02  2.913515892617E-02
  2.789372292631E-02  2.669898083168E-02  2.554946219404E-02  2.444372975582E-02
  2.338037931767E-02  2.235803957398E-02  2.137537191782E-02  2.043107021662E-02
  1.952386056004E-02  1.865250098145E-02  1.781578115445E-02  1.701252206583E-02
  1.624157566637E-02  1.550182450105E-02  1.479218131984E-02  1.411158867067E-02
  1.345901847586E-02  1.283347159337E-02  1.223397736426E-02  1.165959314761E-02
  1.110940384421E-02  1.058252141027E-02  1.007808436241E-02  9.595257275005E-03
  9.133230271123E-03  8.691218508184E-03  8.268461659300E-03  7.864223391429E-03
  7.477790841267E-03  7.108474089840E-03  6.755605636700E-03  6.418539874556E-03
  6.096652565173E-03  5.789340317282E-03  5.496020067244E-03  5.216128563119E-03
  4.949121852781E-03  4.694474776683E-03  4.451680465782E-03  4.220249845163E-03
  3.999711143799E-03  3.789609410879E-03  3.589506039083E-03  3.398978295148E-03
  3.217618858035E-03  3.045035364962E-03  2.880849965548E-03  2.724698884260E-03
  2.576231991356E-03  2.435112382441E-03  2.301015966773E-03  2.173631064392E-03
  2.052658012141E-03  1.937808778615E-03  1.828806588054E-03  1.725385553171E-03
  1.627290316905E-03  1.534275703038E-03  1.446106375636E-03  1.362556507227E-03
  1.283409455641E-03  1.208457449411E-03  1.137501281627E-03  1.070350012120E-03
  1.006820677863E-03  9.467380114422E-04  8.899341674731E-04  8.362484568066E-04
  7.855270883868E-04  7.376229186067E-04  6.923952080085E-04  6.497093851769E-04
  6.094368176691E-04  5.714545898275E-04  5.356452873199E-04  5.018967882534E-04
  4.701020607102E-04  4.401589665524E-04  4.119700713489E-04  3.854424602754E-04
  3.604875598432E-04  3.370209653149E-04  3.149622736662E-04  2.942349219577E-04
  2.747660309810E-04  2.564862540487E-04  2.393296307982E-04  2.232334458834E-04
  2.081380924304E-04  1.939869401371E-04  1.807262078965E-04  1.683048408297E-04
  1.566743916130E-04  1.457889059895E-04  1.356048123554E-04  1.260808153136E-04
  1.171777930907E-04  1.088586987140E-04  1.010884648478E-04  9.383391218887E-05
  8.706366132580E-05  8.074804796401E-05  7.485904142429E-05  6.937016632143E-05
  6.425642733228E-05  5.949423696384E-05  5.506134623322E-05  5.093677817317E-05
  4.710076407790E-05  4.353468240549E-05  4.022100025460E-05  3.714321733453E-05
  3.428581234896E-05  3.163419171527E-05  2.917464054252E-05  2.689427579268E-05
  2.478100155110E-05  2.282346633338E-05  2.101102235759E-05  1.933368671187E-05
  1.778210434900E-05  1.634751284103E-05  1.502170882843E-05  1.379701609960E-05
  1.266625523838E-05  1.162271477816E-05  1.066012380327E-05  9.772625939321E-06
  8.954754675970E-06  8.201409966991E-06  7.507836054021E-06  6.869600461893E-06
  6.282574114953E-06  5.742912525243E-06  5.247038004960E-06  4.791622857045E-06
  4.373573499248E-06  3.990015478481E-06  3.638279333697E-06  3.315887266997E-06
  3.020540584031E-06  2.750107866215E-06  2.502613838602E-06  2.276228898635E-06
  2.069259272319E-06  1.880137765661E-06  1.707415080494E-06  1.549751665070E-06
  1.405910071002E-06  1.274747789359E-06  1.155210539851E-06  1.046325988210E-06
  9.471978679361E-07  8.570004836922E-07  7.749735746363E-07  7.004175170132E-07
  6.326888462962E-07  5.711960801162E-07  5.153958241327E-07  4.647891438833E-07
  4.189181864991E-07  3.773630369972E-07  3.397387946484E-07  3.056928556804E-07
  2.749023893053E-07  2.470719947611E-07  2.219315277290E-07  1.992340851297E-07
  1.787541379199E-07  1.602858020956E-07  1.436412386739E-07  1.286491739580E-07
  1.151535319043E-07  1.030121708938E-07  9.209571767723E-08  8.228649170035E-08