I     ONCVPSP-4.0.1  r_core=   1.40370   1.40370   1.40370   1.75146
53.0000     25.0000      220131    zatom,zion,pspd
8      11   3     4   600     0    pspcod,pspxc,lmax,lloc,mmax,r2well
5.99000000  5.00000000  0.00000000    rchrg fchrg qchrg
2     2     2     2     0    nproj
1     1           extension_switch
0                         1.1659238105210E+01  1.8378749596649E+00
1  0.0000000000000E+00  1.9175405707728E-09 -4.4883469579871E-09
2  1.0000000000000E-02  9.0369239763572E-02 -1.0937839816124E-02
3  2.0000000000000E-02  1.8051258034985E-01 -2.1814845163745E-02
4  3.0000000000000E-02  2.7020392028006E-01 -3.2568430120055E-02
5  4.0000000000000E-02  3.5921677473511E-01 -4.3132558520256E-02
6  5.0000000000000E-02  4.4732413653606E-01 -5.3436149319209E-02
7  6.0000000000000E-02  5.3429839889997E-01 -6.3401635242289E-02
8  7.0000000000000E-02  6.1991135825209E-01 -7.2943720413240E-02
9  8.0000000000000E-02  7.0393431345801E-01 -8.1968378158422E-02
10  9.0000000000000E-02  7.8613827551974E-01 -9.0372124757394E-02
11  1.0000000000000E-01  8.6629429910714E-01 -9.8041598654327E-02
12  1.1000000000000E-01  9.4417394432750E-01 -1.0485346769628E-01
13  1.2000000000000E-01  1.0195498739348E+00 -1.1067467947068E-01
14  1.3000000000000E-01  1.0921965878138E+00 -1.1536306193535E-01
15  1.4000000000000E-01  1.1618912931160E+00 -1.1876827343847E-01
16  1.5000000000000E-01  1.2284149049468E+00 -1.2073309308666E-01
17  1.6000000000000E-01  1.2915531690847E+00 -1.2109503441191E-01
18  1.7000000000000E-01  1.3510978949221E+00 -1.1968825758588E-01
19  1.8000000000000E-01  1.4068482837330E+00 -1.1634574819974E-01
20  1.9000000000000E-01  1.4586123345537E+00 -1.1090172402797E-01
21  2.0000000000000E-01  1.5062083074832E+00 -1.0319422537064E-01
22  2.1000000000000E-01  1.5494662221119E+00 -9.3067839650317E-02
23  2.2000000000000E-01  1.5882293671313E+00 -8.0376507038124E-02
24  2.3000000000000E-01  1.6223557959956E+00 -6.4986351089040E-02
25  2.4000000000000E-01  1.6517197828284E+00 -4.6778476746488E-02
26  2.5000000000000E-01  1.6762132126159E+00 -2.5651677673243E-02
27  2.6000000000000E-01  1.6957468801064E+00 -1.5249956969200E-03
28  2.7000000000000E-01  1.7102516727458E+00  2.5659922785037E-02
29  2.8000000000000E-01  1.7196796143978E+00  5.5936725349508E-02
30  2.9000000000000E-01  1.7240047485162E+00  8.9312554573349E-02
31  3.0000000000000E-01  1.7232238417939E+00  1.2576659365271E-01
32  3.1000000000000E-01  1.7173568920972E+00  1.6524899237157E-01
33  3.2000000000000E-01  1.7064474276129E+00  2.0768020201091E-01
34  3.3000000000000E-01  1.6905625875626E+00  2.5295073996564E-01
35  3.4000000000000E-01  1.6697929784799E+00  3.0092139651320E-01
36  3.5000000000000E-01  1.6442523038358E+00  3.5142388753053E-01
37  3.6000000000000E-01  1.6140767686674E+00  4.0426194816653E-01
38  3.7000000000000E-01  1.5794242647179E+00  4.5921285373233E-01
39  3.8000000000000E-01  1.5404733453675E+00  5.1602934555797E-01
40  3.9000000000000E-01  1.4974220032361E+00  5.7444193146630E-01
41  4.0000000000000E-01  1.4504862667064E+00  6.3416152300747E-01
42  4.1000000000000E-01  1.3998986346597E+00  6.9488236484677E-01
43  4.2000000000000E-01  1.3459063713975E+00  7.5628520585234E-01
44  4.3000000000000E-01  1.2887696859590E+00  8.1804065662072E-01
45  4.4000000000000E-01  1.2287598218084E+00  8.7981267451445E-01
46  4.5000000000000E-01  1.1661570841047E+00  9.4126211485603E-01
47  4.6000000000000E-01  1.1012488324671E+00  1.0020502857813E+00
48  4.7000000000000E-01  1.0343274672827E+00  1.0618424444402E+00
49  4.8000000000000E-01  9.6568843717654E-01  1.1203111737403E+00
50  4.9000000000000E-01  8.9562829428644E-01  1.1771395816399E+00
51  5.0000000000000E-01  8.2444282246621E-01  1.2320242690497E+00
52  5.1000000000000E-01  7.5242526153188E-01  1.2846780176217E+00
53  5.2000000000000E-01  6.7986464819522E-01  1.3348321549701E+00
54  5.3000000000000E-01  6.0704429146006E-01  1.3822385620647E+00
55  5.4000000000000E-01  5.3424039705156E-01  1.4266712954856E+00
56  5.5000000000000E-01  4.6172085197719E-01  1.4679278057803E+00
57  5.6000000000000E-01  3.8974417665983E-01  1.5058297421087E+00
58  5.7000000000000E-01  3.1855864832073E-01  1.5402233425199E+00
59  5.8000000000000E-01  2.4840159550714E-01  1.5709794183538E+00
60  5.9000000000000E-01  1.7949885994415E-01  1.5979929502073E+00
61  6.0000000000000E-01  1.1206441832695E-01  1.6211823214353E+00
62  6.1000000000000E-01  4.6300153341154E-02  1.6404882230789E+00
63  6.2000000000000E-01 -1.7604239817986E-02  1.6558722712391E+00
64  6.3000000000000E-01 -7.9471227789688E-02  1.6673153840718E+00
65  6.4000000000000E-01 -1.3913531280527E-01  1.6748159706326E+00
66  6.5000000000000E-01 -1.9644282609891E-01  1.6783879875993E+00
67  6.6000000000000E-01 -2.5125166236042E-01  1.6780589223741E+00
68  6.7000000000000E-01 -3.0343097719928E-01  1.6738677621265E+00
69  6.8000000000000E-01 -3.5286086958361E-01  1.6658630079558E+00
70  6.9000000000000E-01 -3.9943207062455E-01  1.6541007915187E+00
71  7.0000000000000E-01 -4.4304565890581E-01  1.6386431482156E+00
72  7.1000000000000E-01 -4.8361282083583E-01  1.6195564964149E+00
73  7.2000000000000E-01 -5.2105467226396E-01  1.5969103663188E+00
74  7.3000000000000E-01 -5.5530215490298E-01  1.5707764150520E+00
75  7.4000000000000E-01 -5.8629601800180E-01  1.5412277565498E+00
76  7.5000000000000E-01 -6.1398689228567E-01  1.5083386259986E+00
77  7.6000000000000E-01 -6.3833545951036E-01  1.4721843891514E+00
78  7.7000000000000E-01 -6.5931271714880E-01  1.4328418970112E+00
79  7.8000000000000E-01 -6.7690033383856E-01  1.3903901763734E+00
80  7.9000000000000E-01 -6.9109108736238E-01  1.3449114367877E+00
81  8.0000000000000E-01 -7.0188937321071E-01  1.2964923648720E+00
82  8.1000000000000E-01 -7.0931176827924E-01  1.2452256678179E+00
83  8.2000000000000E-01 -7.1338763107993E-01  1.1912118196042E+00
84  8.3000000000000E-01 -7.1415971707655E-01  1.1345609560839E+00
85  8.4000000000000E-01 -7.1168478547376E-01  1.0753948589286E+00
86  8.5000000000000E-01 -7.0603417206114E-01  1.0138489635692E+00
87  8.6000000000000E-01 -6.9729430159646E-01  9.5007432290885E-01
88  8.7000000000000E-01 -6.8556711274954E-01  8.8423945680234E-01
89  8.8000000000000E-01 -6.7097036884764E-01  8.1653201718377E-01
90  8.9000000000000E-01 -6.5363782857963E-01  7.4716020030595E-01
91  9.0000000000000E-01 -6.3371925242548E-01  6.7635384084052E-01
92  9.1000000000000E-01 -6.1138022286178E-01  6.0436512753090E-01
93  9.2000000000000E-01 -5.8680175931772E-01  5.3146888661636E-01
94  9.3000000000000E-01 -5.6017971236853E-01  4.5796238723750E-01
95  9.4000000000000E-01 -5.3172392568966E-01  3.8416463234160E-01
96  9.5000000000000E-01 -5.0165715877593E-01  3.1041510904497E-01
97  9.6000000000000E-01 -4.7021376826566E-01  2.3707198376968E-01
98  9.7000000000000E-01 -4.3763815079696E-01  1.6450973950975E-01
99  9.8000000000000E-01 -4.0418295555839E-01  9.3116265051346E-02
100  9.9000000000000E-01 -3.7010707995832E-01  2.3289418590131E-02
101  1.0000000000000E+00 -3.3567346701466E-01 -4.4566899314438E-02
102  1.0100000000000E+00 -3.0114672803635E-01 -1.1004711642134E-01
103  1.0200000000000E+00 -2.6679061882014E-01 -1.7274874468844E-01
104  1.0300000000000E+00 -2.3286540180341E-01 -2.3227745245915E-01
105  1.0400000000000E+00 -1.9962513029403E-01 -2.8825237480940E-01
106  1.0500000000000E+00 -1.6731489395386E-01 -3.4031157607267E-01
107  1.0600000000000E+00 -1.3616806704903E-01 -3.8811757236652E-01
108  1.0700000000000E+00 -1.0640360254203E-01 -4.3136281753463E-01
109  1.0800000000000E+00 -7.8223415827160E-02 -4.6977505343999E-01
110  1.0900000000000E+00 -5.1809901772466E-02 -5.0312242508019E-01
111  1.1000000000000E+00 -2.7323627705144E-02 -5.3121826260139E-01
112  1.1100000000000E+00 -4.9012430735762E-03 -5.5392543595304E-01
113  1.1200000000000E+00  1.5346356250760E-02 -5.7116019362885E-01
114  1.1300000000000E+00  3.3335574656242E-02 -5.8289540457699E-01
115  1.1400000000000E+00  4.9011344436706E-02 -5.8916313181756E-01
116  1.1500000000000E+00  6.2348009418907E-02 -5.9005647740500E-01
117  1.1600000000000E+00  7.3349845229871E-02 -5.8573065091017E-01
118  1.1700000000000E+00  8.2051202989930E-02 -5.7640322732406E-01
119  1.1800000000000E+00  8.8516269732348E-02 -5.6235357496721E-01
120  1.1900000000000E+00  9.2838446826985E-02 -5.4392145268736E-01
121  1.2000000000000E+00  9.5139340780714E-02 -5.2150475287801E-01
122  1.2100000000000E+00  9.5567252931722E-02 -4.9555605975973E-01
123  1.2200000000000E+00  9.4292246732700E-02 -4.6656988227531E-01
124  1.2300000000000E+00  9.1499525342537E-02 -4.3506567886293E-01
125  1.2400000000000E+00  8.7386081403829E-02 -4.0158044452473E-01
126  1.2500000000000E+00  8.2157745322721E-02 -3.6666253689221E-01
127  1.2600000000000E+00  7.6026067331723E-02 -3.3086511086146E-01
128  1.2700000000000E+00  6.9205084261286E-02 -2.9473927601033E-01
129  1.2800000000000E+00  6.1908021076023E-02 -2.5882708755349E-01
130  1.2900000000000E+00  5.4343980230523E-02 -2.2365448924877E-01
131  1.3000000000000E+00  4.6714672718646E-02 -1.8972432870754E-01
132  1.3100000000000E+00  3.9211249752502E-02 -1.5750957901694E-01
133  1.3200000000000E+00  3.2011235040449E-02 -1.2744674835739E-01
134  1.3300000000000E+00  2.5275836452418E-02 -9.9930180034815E-02
135  1.3400000000000E+00  1.9142729574421E-02 -7.5294430016758E-02
136  1.3500000000000E+00  1.3722035391619E-02 -5.3804089962524E-02
137  1.3600000000000E+00  9.1197078641707E-03 -3.5716346067491E-02
138  1.3700000000000E+00  5.4154716532444E-03 -2.1225367357015E-02
139  1.3800000000000E+00  2.6612096150761E-03 -1.0458800185024E-02
140  1.3900000000000E+00  8.7504388553313E-04 -3.4551247695232E-03
141  1.4000000000000E+00  7.8411978517944E-05 -3.1182170943360E-04
142  1.4100000000000E+00 -8.4547419095259E-06  3.3756876634256E-05
143  1.4200000000000E+00  9.0474476562919E-07 -3.5990173471457E-06
144  1.43 -0.  0.
145  1.44  0.  0.
146  1.45  0.  0.
147  1.46  0.  0.
148  1.47  0.  0.
149  1.48  0.  0.
150  1.49  0.  0.
151  1.50  0.  0.
152  1.51  0.  0.
153  1.52  0.  0.
154  1.53  0.  0.
155  1.54  0.  0.
156  1.55  0.  0.
157  1.56  0.  0.
158  1.57  0.  0.
159  1.58  0.  0.
160  1.59  0.  0.
161  1.60  0.  0.
162  1.61  0.  0.
163  1.62  0.  0.
164  1.63  0.  0.
165  1.64  0.  0.
166  1.65  0.  0.
167  1.66  0.  0.
168  1.67  0.  0.
169  1.68  0.  0.
170  1.69  0.  0.
171  1.70  0.  0.
172  1.71  0.  0.
173  1.72  0.  0.
174  1.73  0.  0.
175  1.74  0.  0.
176  1.75  0.  0.
177  1.76  0.  0.
178  1.77  0.  0.
179  1.78  0.  0.
180  1.79  0.  0.
181  1.80  0.  0.
182  1.81  0.  0.
183  1.82  0.  0.
184  1.83  0.  0.
185  1.84  0.  0.
186  1.85  0.  0.
187  1.86  0.  0.
188  1.87  0.  0.
189  1.88  0.  0.
190  1.89  0.  0.
191  1.90  0.  0.
192  1.91  0.  0.
193  1.92  0.  0.
194  1.93  0.  0.
195  1.94  0.  0.
196  1.95  0.  0.
197  1.96  0.  0.
198  1.97  0.  0.
199  1.98  0.  0.
200  1.99  0.  0.
201  2.00  0.  0.
202  2.01  0.  0.
203  2.02  0.  0.
204  2.03  0.  0.
205  2.04  0.  0.
206  2.05  0.  0.
207  2.06  0.  0.
208  2.07  0.  0.
209  2.08  0.  0.
210  2.09  0.  0.
211  2.10  0.  0.
212  2.11  0.  0.
213  2.12  0.  0.
214  2.13  0.  0.
215  2.14  0.  0.
216  2.15  0.  0.
217  2.16  0.  0.
218  2.17  0.  0.
219  2.18  0.  0.
220  2.19  0.  0.
221  2.20  0.  0.
222  2.21  0.  0.
223  2.22  0.  0.
224  2.23  0.  0.
225  2.24  0.  0.
226  2.25  0.  0.
227  2.26  0.  0.
228  2.27  0.  0.
229  2.28  0.  0.
230  2.29  0.  0.
231  2.30  0.  0.
232  2.31  0.  0.
233  2.32  0.  0.
234  2.33  0.  0.
235  2.34  0.  0.
236  2.35  0.  0.
237  2.36  0.  0.
238  2.37  0.  0.
239  2.38  0.  0.
240  2.39  0.  0.
241  2.40  0.  0.
242  2.41  0.  0.
243  2.42  0.  0.
244  2.43  0.  0.
245  2.44  0.  0.
246  2.45  0.  0.
247  2.46  0.  0.
248  2.47  0.  0.
249  2.48  0.  0.
250  2.49  0.  0.
251  2.50  0.  0.
252  2.51  0.  0.
253  2.52  0.  0.
254  2.53  0.  0.
255  2.54  0.  0.
256  2.55  0.  0.
257  2.56  0.  0.
258  2.57  0.  0.
259  2.58  0.  0.
260  2.59  0.  0.
261  2.60  0.  0.
262  2.61  0.  0.
263  2.62  0.  0.
264  2.63  0.  0.
265  2.64  0.  0.
266  2.65  0.  0.
267  2.66  0.  0.
268  2.67  0.  0.
269  2.68  0.  0.
270  2.69  0.  0.
271  2.70  0.  0.
272  2.71  0.  0.
273  2.72  0.  0.
274  2.73  0.  0.
275  2.74  0.  0.
276  2.75  0.  0.
277  2.76  0.  0.
278  2.77  0.  0.
279  2.78  0.  0.
280  2.79  0.  0.
281  2.80  0.  0.
282  2.81  0.  0.
283  2.82  0.  0.
284  2.83  0.  0.
285  2.84  0.  0.
286  2.85  0.  0.
287  2.86  0.  0.
288  2.87  0.  0.
289  2.88  0.  0.
290  2.89  0.  0.
291  2.90  0.  0.
292  2.91  0.  0.
293  2.92  0.  0.
294  2.93  0.  0.
295  2.94  0.  0.
296  2.95  0.  0.
297  2.96  0.  0.
298  2.97  0.  0.
299  2.98  0.  0.
300  2.99  0.  0.
301  3.00  0.  0.
302  3.01  0.  0.
303  3.02  0.  0.
304  3.03  0.  0.
305  3.04  0.  0.
306  3.05  0.  0.
307  3.06  0.  0.
308  3.07  0.  0.
309  3.08  0.  0.
310  3.09  0.  0.
311  3.10  0.  0.
312  3.11  0.  0.
313  3.12  0.  0.
314  3.13  0.  0.
315  3.14  0.  0.
316  3.15  0.  0.
317  3.16  0.  0.
318  3.17  0.  0.
319  3.18  0.  0.
320  3.19  0.  0.
321  3.20  0.  0.
322  3.21  0.  0.
323  3.22  0.  0.
324  3.23  0.  0.
325  3.24  0.  0.
326  3.25  0.  0.
327  3.26  0.  0.
328  3.27  0.  0.
329  3.28  0.  0.
330  3.29  0.  0.
331  3.30  0.  0.
332  3.31  0.  0.
333  3.32  0.  0.
334  3.33  0.  0.
335  3.34  0.  0.
336  3.35  0.  0.
337  3.36  0.  0.
338  3.37  0.  0.
339  3.38  0.  0.
340  3.39  0.  0.
341  3.40  0.  0.
342  3.41  0.  0.
343  3.42  0.  0.
344  3.43  0.  0.
345  3.44  0.  0.
346  3.45  0.  0.
347  3.46  0.  0.
348  3.47  0.  0.
349  3.48  0.  0.
350  3.49  0.  0.
351  3.50  0.  0.
352  3.51  0.  0.
353  3.52  0.  0.
354  3.53  0.  0.
355  3.54  0.  0.
356  3.55  0.  0.
357  3.56  0.  0.
358  3.57  0.  0.
359  3.58  0.  0.
360  3.59  0.  0.
361  3.60  0.  0.
362  3.61  0.  0.
363  3.62  0.  0.
364  3.63  0.  0.
365  3.64  0.  0.
366  3.65  0.  0.
367  3.66  0.  0.
368  3.67  0.  0.
369  3.68  0.  0.
370  3.69  0.  0.
371  3.70  0.  0.
372  3.71  0.  0.
373  3.72  0.  0.
374  3.73  0.  0.
375  3.74  0.  0.
376  3.75  0.  0.
377  3.76  0.  0.
378  3.77  0.  0.
379  3.78  0.  0.
380  3.79  0.  0.
381  3.80  0.  0.
382  3.81  0.  0.
383  3.82  0.  0.
384  3.83  0.  0.
385  3.84  0.  0.
386  3.85  0.  0.
387  3.86  0.  0.
388  3.87  0.  0.
389  3.88  0.  0.
390  3.89  0.  0.
391  3.90  0.  0.
392  3.91  0.  0.
393  3.92  0.  0.
394  3.93  0.  0.
395  3.94  0.  0.
396  3.95  0.  0.
397  3.96  0.  0.
398  3.97  0.  0.
399  3.98  0.  0.
400  3.99  0.  0.
401  4.00  0.  0.
402  4.01  0.  0.
403  4.02  0.  0.
404  4.03  0.  0.
405  4.04  0.  0.
406  4.05  0.  0.
407  4.06  0.  0.
408  4.07  0.  0.
409  4.08  0.  0.
410  4.09  0.  0.
411  4.10  0.  0.
412  4.11  0.  0.
413  4.12  0.  0.
414  4.13  0.  0.
415  4.14  0.  0.
416  4.15  0.  0.
417  4.16  0.  0.
418  4.17  0.  0.
419  4.18  0.  0.
420  4.19  0.  0.
421  4.20  0.  0.
422  4.21  0.  0.
423  4.22  0.  0.
424  4.23  0.  0.
425  4.24  0.  0.
426  4.25  0.  0.
427  4.26  0.  0.
428  4.27  0.  0.
429  4.28  0.  0.
430  4.29  0.  0.
431  4.30  0.  0.
432  4.31  0.  0.
433  4.32  0.  0.
434  4.33  0.  0.
435  4.34  0.  0.
436  4.35  0.  0.
437  4.36  0.  0.
438  4.37  0.  0.
439  4.38  0.  0.
440  4.39  0.  0.
441  4.40  0.  0.
442  4.41  0.  0.
443  4.42  0.  0.
444  4.43  0.  0.
445  4.44  0.  0.
446  4.45  0.  0.
447  4.46  0.  0.
448  4.47  0.  0.
449  4.48  0.  0.
450  4.49  0.  0.
451  4.50  0.  0.
452  4.51  0.  0.
453  4.52  0.  0.
454  4.53  0.  0.
455  4.54  0.  0.
456  4.55  0.  0.
457  4.56  0.  0.
458  4.57  0.  0.
459  4.58  0.  0.
460  4.59  0.  0.
461  4.60  0.  0.
462  4.61  0.  0.
463  4.62  0.  0.
464  4.63  0.  0.
465  4.64  0.  0.
466  4.65  0.  0.
467  4.66  0.  0.
468  4.67  0.  0.
469  4.68  0.  0.
470  4.69  0.  0.
471  4.70  0.  0.
472  4.71  0.  0.
473  4.72  0.  0.
474  4.73  0.  0.
475  4.74  0.  0.
476  4.75  0.  0.
477  4.76  0.  0.
478  4.77  0.  0.
479  4.78  0.  0.
480  4.79  0.  0.
481  4.80  0.  0.
482  4.81  0.  0.
483  4.82  0.  0.
484  4.83  0.  0.
485  4.84  0.  0.
486  4.85  0.  0.
487  4.86  0.  0.
488  4.87  0.  0.
489  4.88  0.  0.
490  4.89  0.  0.
491  4.90  0.  0.
492  4.91  0.  0.
493  4.92  0.  0.
494  4.93  0.  0.
495  4.94  0.  0.
496  4.95  0.  0.
497  4.96  0.  0.
498  4.97  0.  0.
499  4.98  0.  0.
500  4.99  0.  0.
501  5.00  0.  0.
502  5.01  0.  0.
503  5.02  0.  0.
504  5.03  0.  0.
505  5.04  0.  0.
506  5.05  0.  0.
507  5.06  0.  0.
508  5.07  0.  0.
509  5.08  0.  0.
510  5.09  0.  0.
511  5.10  0.  0.
512  5.11  0.  0.
513  5.12  0.  0.
514  5.13  0.  0.
515  5.14  0.  0.
516  5.15  0.  0.
517  5.16  0.  0.
518  5.17  0.  0.
519  5.18  0.  0.
520  5.19  0.  0.
521  5.20  0.  0.
522  5.21  0.  0.
523  5.22  0.  0.
524  5.23  0.  0.
525  5.24  0.  0.
526  5.25  0.  0.
527  5.26  0.  0.
528  5.27  0.  0.
529  5.28  0.  0.
530  5.29  0.  0.
531  5.30  0.  0.
532  5.31  0.  0.
533  5.32  0.  0.
534  5.33  0.  0.
535  5.34  0.  0.
536  5.35  0.  0.
537  5.36  0.  0.
538  5.37  0.  0.
539  5.38  0.  0.
540  5.39  0.  0.
541  5.40  0.  0.
542  5.41  0.  0.
543  5.42  0.  0.
544  5.43  0.  0.
545  5.44  0.  0.
546  5.45  0.  0.
547  5.46  0.  0.
548  5.47  0.  0.
549  5.48  0.  0.
550  5.49  0.  0.
551  5.50  0.  0.
552  5.51  0.  0.
553  5.52  0.  0.
554  5.53  0.  0.
555  5.54  0.  0.
556  5.55  0.  0.
557  5.56  0.  0.
558  5.57  0.  0.
559  5.58  0.  0.
560  5.59  0.  0.
561  5.60  0.  0.
562  5.61  0.  0.
563  5.62  0.  0.
564  5.63  0.  0.
565  5.64  0.  0.
566  5.65  0.  0.
567  5.66  0.  0.
568  5.67  0.  0.
569  5.68  0.  0.
570  5.69  0.  0.
571  5.70  0.  0.
572  5.71  0.  0.
573  5.72  0.  0.
574  5.73  0.  0.
575  5.74  0.  0.
576  5.75  0.  0.
577  5.76  0.  0.
578  5.77  0.  0.
579  5.78  0.  0.
580  5.79  0.  0.
581  5.80  0.  0.
582  5.81  0.  0.
583  5.82  0.  0.
584  5.83  0.  0.
585  5.84  0.  0.
586  5.85  0.  0.
587  5.86  0.  0.
588  5.87  0.  0.
589  5.88  0.  0.
590  5.89  0.  0.
591  5.90  0.  0.
592  5.91  0.  0.
593  5.92  0.  0.
594  5.93  0.  0.
595  5.94  0.  0.
596  5.95  0.  0.
597  5.96  0.  0.
598  5.97  0.  0.
599  5.98  0.  0.
600  5.99  0.  0.
1                         3.5386865343742E+00 -1.6774340724996E-01
1  0.0000000000000E+00 -3.0975685627599E-09 -2.3657453440684E-08
2  1.0000000000000E-02  2.6695081433506E-03 -8.5500297568774E-04
3  2.0000000000000E-02  1.0663843659314E-02 -3.3938950141020E-03
4  3.0000000000000E-02  2.3940449255664E-02 -7.5389305332107E-03
5  4.0000000000000E-02  4.2428429695006E-02 -1.3162535896232E-02
6  5.0000000000000E-02  6.6028609390611E-02 -2.0090262121442E-02
7  6.0000000000000E-02  9.4613627236409E-02 -2.8104818380691E-02
8  7.0000000000000E-02  1.2802808229840E-01 -3.6951088952371E-02
9  8.0000000000000E-02  1.6608874709233E-01 -4.6342012637134E-02
10  9.0000000000000E-02  2.0858486770323E-01 -5.5965182958489E-02
11  1.0000000000000E-01  2.5527857187102E-01 -6.5490010267223E-02
12  1.1000000000000E-01  3.0590540729686E-01 -7.4575273572267E-02
13  1.2000000000000E-01  3.6017503276023E-01 -8.2876880858494E-02
14  1.3000000000000E-01  4.1777208414199E-01 -9.0055652050754E-02
15  1.4000000000000E-01  4.7835723611114E-01 -9.5784938756535E-02
16  1.5000000000000E-01  5.4156847806386E-01 -9.9757899470651E-02
17  1.6000000000000E-01  6.0702261993651E-01 -1.0169425794407E-01
18  1.7000000000000E-01  6.7431703980608E-01 -1.0134638568527E-01
19  1.8000000000000E-01  7.4303168082028E-01 -9.8504566748577E-02
20  1.9000000000000E-01  8.1273130006216E-01 -9.3001323649238E-02
21  2.0000000000000E-01  8.8296796656639E-01 -8.4714706915558E-02
22  2.1000000000000E-01  9.5328379999466E-01 -7.3570476859490E-02
23  2.2000000000000E-01  1.0232139355878E+00 -5.9543133971222E-02
24  2.3000000000000E-01  1.0922896950907E+00 -4.2655783226192E-02
25  2.4000000000000E-01  1.1600419375459E+00 -2.2978846815457E-02
26  2.5000000000000E-01  1.2260045583279E+00 -6.2766863813144E-04
27  2.6000000000000E-01  1.2897180996903E+00  2.4240918395026E-02
28  2.7000000000000E-01  1.3507334315685E+00  5.1432965306337E-02
29  2.8000000000000E-01  1.4086154575518E+00  8.0722599886152E-02
30  2.9000000000000E-01  1.4629467979253E+00  1.1185789871430E-01
31  3.0000000000000E-01  1.5133313995912E+00  1.4456728091424E-01
32  3.1000000000000E-01  1.5593980215815E+00  1.7856625346441E-01
33  3.2000000000000E-01  1.6008035448307E+00  2.1356432953529E-01
34  3.3000000000000E-01  1.6372360559197E+00  2.4927193755688E-01
35  3.4000000000000E-01  1.6684176566381E+00  2.8540713966008E-01
36  3.5000000000000E-01  1.6941069544106E+00  3.2170198377420E-01
37  3.6000000000000E-01  1.7141011928669E+00  3.5790832387146E-01
38  3.7000000000000E-01  1.7282379870098E+00  3.9380295738985E-01
39  3.8000000000000E-01  1.7363966334706E+00  4.2919194738102E-01
40  3.9000000000000E-01  1.7384989731106E+00  4.6391401896327E-01
41  4.0000000000000E-01  1.7345097905939E+00  4.9784294466120E-01
42  4.1000000000000E-01  1.7244367433616E+00  5.3088886055073E-01
43  4.2000000000000E-01  1.7083298205225E+00  5.6299848410755E-01
44  4.3000000000000E-01  1.6862803403478E+00  5.9415423453401E-01
45  4.4000000000000E-01  1.6584195031495E+00  6.2437228634324E-01
46  4.5000000000000E-01  1.6249165241404E+00  6.5369961632637E-01
47  4.6000000000000E-01  1.5859763782462E+00  6.8221013194777E-01
48  4.7000000000000E-01  1.5418371955883E+00  7.0999999496112E-01
49  4.8000000000000E-01  1.4927673523326E+00  7.3718227692182E-01
50  4.9000000000000E-01  1.4390623066501E+00  7.6388110266177E-01
51  5.0000000000000E-01  1.3810412335480E+00  7.9022545314872E-01
52  5.1000000000000E-01  1.3190435152068E+00  8.1634281002776E-01
53  5.2000000000000E-01  1.2534251451194E+00  8.4235283020549E-01
54  5.3000000000000E-01  1.1845551047421E+00  8.6836123987519E-01
55  5.4000000000000E-01  1.1128117705107E+00  8.9445413330649E-01
56  5.5000000000000E-01  1.0385794069688E+00  9.2069285258711E-01
57  5.6000000000000E-01  9.6224479845181E-01  9.4710961048174E-01
58  5.7000000000000E-01  8.8419406733088E-01  9.7370399997401E-01
59  5.8000000000000E-01  8.0480972137324E-01  1.0004405113117E+00
60  5.9000000000000E-01  7.2446796642609E-01  1.0272471510272E+00
61  6.0000000000000E-01  6.4353631355151E-01  1.0540152281006E+00
62  6.1000000000000E-01  5.6237150209045E-01  1.0806003408981E+00
63  6.2000000000000E-01  4.8131775210866E-01  1.1068245655626E+00
64  6.3000000000000E-01  4.0070535146961E-01  1.1324798129863E+00
65  6.4000000000000E-01  3.2084957459568E-01  1.1573322882545E+00
66  6.5000000000000E-01  2.4204992202056E-01  1.1811279543735E+00
67  6.6000000000000E-01  1.6458966230467E-01  1.2035988720602E+00
68  6.7000000000000E-01  8.8735650968913E-02  1.2244702601992E+00
69  6.8000000000000E-01  1.4738394978248E-02  1.2434680980172E+00
70  6.9000000000000E-01 -5.7167673870288E-02  1.2603270707756E+00
71  7.0000000000000E-01 -1.2676375739619E-01  1.2747986464174E+00
72  7.1000000000000E-01 -1.9384612497006E-01  1.2866590615761E+00
73  7.2000000000000E-01 -2.5822546822823E-01  1.2957169920153E+00
74  7.3000000000000E-01 -3.1972622219806E-01  1.3018206850842E+00
75  7.4000000000000E-01 -3.7818589748214E-01  1.3048643402158E+00
76  7.5000000000000E-01 -4.3345446587211E-01  1.3047935377272E+00
77  7.6000000000000E-01 -4.8539383824669E-01  1.3016095359702E+00
78  7.7000000000000E-01 -5.3387746894592E-01  1.2953722817999E+00
79  7.8000000000000E-01 -5.7879011512314E-01  1.2862020088506E+00
80  7.9000000000000E-01 -6.2002777301069E-01  1.2742793315534E+00
81  8.0000000000000E-01 -6.5749780576543E-01  1.2598437794145E+00
82  8.1000000000000E-01 -6.9111926978339E-01  1.2431907549374E+00
83  8.2000000000000E-01 -7.2082343829695E-01  1.2246669387454E+00
84  8.3000000000000E-01 -7.4655451291538E-01  1.2046642059726E+00
85  8.4000000000000E-01 -7.6827050576376E-01  1.1836121577989E+00
86  8.5000000000000E-01 -7.8594426724234E-01  1.1619694101081E+00
87  8.6000000000000E-01 -7.9956462738397E-01  1.1402138166343E+00
88  8.7000000000000E-01 -8.0913761253768E-01  1.1188318357154E+00
89  8.8000000000000E-01 -8.1468769383695E-01  1.0983072770046E+00
90  8.9000000000000E-01 -8.1625901978680E-01  1.0791096864633E+00
91  9.0000000000000E-01 -8.1391658245873E-01  1.0616826440132E+00
92  9.1000000000000E-01 -8.0774726532216E-01  1.0464322578644E+00
93  9.2000000000000E-01 -7.9786072073368E-01  1.0337161424181E+00
94  9.3000000000000E-01 -7.8439002658354E-01  1.0238331625644E+00
95  9.4000000000000E-01 -7.6749207455631E-01  1.0170142161665E+00
96  9.5000000000000E-01 -7.4734764685394E-01  1.0134143086795E+00
97  9.6000000000000E-01 -7.2416114397135E-01  1.0131061495440E+00
98  9.7000000000000E-01 -6.9815993308522E-01  1.0160754697162E+00
99  9.8000000000000E-01 -6.6959329466619E-01  1.0222182240827E+00
100  9.9000000000000E-01 -6.3873095386183E-01  1.0313398023858E+00
101  1.0000000000000E+00 -6.0586119281697E-01  1.0431563285323E+00
102  1.0100000000000E+00 -5.7128855015964E-01  1.0572980818433E+00
103  1.0200000000000E+00 -5.3533112414833E-01  1.0733150259411E+00
104  1.0300000000000E+00 -4.9831750617849E-01  1.0906843827871E+00
105  1.0400000000000E+00 -4.6058338122430E-01  1.1088201420289E+00
106  1.0500000000000E+00 -4.2246784110532E-01  1.1270843503557E+00
107  1.0600000000000E+00 -3.8430946493949E-01  1.1447999832819E+00
108  1.0700000000000E+00 -3.4644222856685E-01  1.1612651636048E+00
109  1.0800000000000E+00 -3.0919131088979E-01  1.1757684577101E+00
110  1.0900000000000E+00 -2.7286886977857E-01  1.1876049538640E+00
111  1.1000000000000E+00 -2.3776986331566E-01  1.1960928061931E+00
112  1.1100000000000E+00 -2.0416799356089E-01  1.2005899149312E+00
113  1.1200000000000E+00 -1.7231184966340E-01  1.2005104079536E+00
114  1.1300000000000E+00 -1.4242132498441E-01  1.1953405909147E+00
115  1.1400000000000E+00 -1.1468437895310E-01  1.1846540434074E+00
116  1.1500000000000E+00 -8.9254208710128E-02  1.1681255563199E+00
117  1.1600000000000E+00 -6.6246888307070E-02  1.1455436305961E+00
118  1.1700000000000E+00 -4.5739524474926E-02  1.1168212893351E+00
119  1.1800000000000E+00 -2.7768967907257E-02  1.0820049929701E+00
120  1.1900000000000E+00 -1.2331106537887E-02  1.0412815013636E+00
121  1.2000000000000E+00  6.1922960979996E-04  9.9498244704381E-01
122  1.2100000000000E+00  1.1167613051889E-02  9.4358536663135E-01
123  1.2200000000000E+00  1.9435392274975E-02  8.8768418064983E-01
124  1.2300000000000E+00  2.5572630151139E-02  8.2794604696980E-01
125  1.2400000000000E+00  2.9754047142706E-02  7.6509978140576E-01
126  1.2500000000000E+00  3.2175152517132E-02  6.9992800294595E-01
127  1.2600000000000E+00  3.3047992973711E-02  6.3325747626923E-01
128  1.2700000000000E+00  3.2596592397655E-02  5.6594791715225E-01
129  1.2800000000000E+00  3.1052160384640E-02  4.9887952840291E-01
130  1.2900000000000E+00  2.8648154862125E-02  4.3293957301832E-01
131  1.3000000000000E+00  2.5615288774533E-02  3.6900831207456E-01
132  1.3100000000000E+00  2.2176583667560E-02  3.0794468063772E-01
133  1.3200000000000E+00  1.8542460497238E-02  2.5057172874254E-01
134  1.3300000000000E+00  1.4906406085874E-02  1.9766354522591E-01
135  1.3400000000000E+00  1.1431592351679E-02  1.4990333307228E-01
136  1.3500000000000E+00  8.2434500750050E-03  1.0785568347142E-01
137  1.3600000000000E+00  5.4760287644456E-03  7.2116612704437E-02
138  1.3700000000000E+00  3.2292066373023E-03  4.3184972731539E-02
139  1.3800000000000E+00  1.5651195036529E-03  2.1451145934072E-02
140  1.3900000000000E+00  5.0393191477571E-04  7.1464216957420E-03
141  1.4000000000000E+00  4.3773673223234E-05  6.5110276828857E-04
142  1.4100000000000E+00 -4.6359696255200E-06 -7.0866783656534E-05
143  1.4200000000000E+00  5.0422130134803E-07  7.5231952465126E-06
144  1.43 -0.  0.
145  1.44  0.  0.
146  1.45  0.  0.
147  1.46  0.  0.
148  1.47  0.  0.
149  1.48  0.  0.
150  1.49  0.  0.
151  1.50  0.  0.
152  1.51  0.  0.
153  1.52  0.  0.
154  1.53  0.  0.
155  1.54  0.  0.
156  1.55  0.  0.
157  1.56  0.  0.
158  1.57  0.  0.
159  1.58  0.  0.
160  1.59  0.  0.
161  1.60  0.  0.
162  1.61  0.  0.
163  1.62  0.  0.
164  1.63  0.  0.
165  1.64  0.  0.
166  1.65  0.  0.
167  1.66  0.  0.
168  1.67  0.  0.
169  1.68  0.  0.
170  1.69  0.  0.
171  1.70  0.  0.
172  1.71  0.  0.
173  1.72  0.  0.
174  1.73  0.  0.
175  1.74  0.  0.
176  1.75  0.  0.
177  1.76  0.  0.
178  1.77  0.  0.
179  1.78  0.  0.
180  1.79  0.  0.
181  1.80  0.  0.
182  1.81  0.  0.
183  1.82  0.  0.
184  1.83  0.  0.
185  1.84  0.  0.
186  1.85  0.  0.
187  1.86  0.  0.
188  1.87  0.  0.
189  1.88  0.  0.
190  1.89  0.  0.
191  1.90  0.  0.
192  1.91  0.  0.
193  1.92  0.  0.
194  1.93  0.  0.
195  1.94  0.  0.
196  1.95  0.  0.
197  1.96  0.  0.
198  1.97  0.  0.
199  1.98  0.  0.
200  1.99  0.  0.
201  2.00  0.  0.
202  2.01  0.  0.
203  2.02  0.  0.
204  2.03  0.  0.
205  2.04  0.  0.
206  2.05  0.  0.
207  2.06  0.  0.
208  2.07  0.  0.
209  2.08  0.  0.
210  2.09  0.  0.
211  2.10  0.  0.
212  2.11  0.  0.
213  2.12  0.  0.
214  2.13  0.  0.
215  2.14  0.  0.
216  2.15  0.  0.
217  2.16  0.  0.
218  2.17  0.  0.
219  2.18  0.  0.
220  2.19  0.  0.
221  2.20  0.  0.
222  2.21  0.  0.
223  2.22  0.  0.
224  2.23  0.  0.
225  2.24  0.  0.
226  2.25  0.  0.
227  2.26  0.  0.
228  2.27  0.  0.
229  2.28  0.  0.
230  2.29  0.  0.
231  2.30  0.  0.
232  2.31  0.  0.
233  2.32  0.  0.
234  2.33  0.  0.
235  2.34  0.  0.
236  2.35  0.  0.
237  2.36  0.  0.
238  2.37  0.  0.
239  2.38  0.  0.
240  2.39  0.  0.
241  2.40  0.  0.
242  2.41  0.  0.
243  2.42  0.  0.
244  2.43  0.  0.
245  2.44  0.  0.
246  2.45  0.  0.
247  2.46  0.  0.
248  2.47  0.  0.
249  2.48  0.  0.
250  2.49  0.  0.
251  2.50  0.  0.
252  2.51  0.  0.
253  2.52  0.  0.
254  2.53  0.  0.
255  2.54  0.  0.
256  2.55  0.  0.
257  2.56  0.  0.
258  2.57  0.  0.
259  2.58  0.  0.
260  2.59  0.  0.
261  2.60  0.  0.
262  2.61  0.  0.
263  2.62  0.  0.
264  2.63  0.  0.
265  2.64  0.  0.
266  2.65  0.  0.
267  2.66  0.  0.
268  2.67  0.  0.
269  2.68  0.  0.
270  2.69  0.  0.
271  2.70  0.  0.
272  2.71  0.  0.
273  2.72  0.  0.
274  2.73  0.  0.
275  2.74  0.  0.