I     ONCVPSP-4.0.1  r_core=   2.00980   2.15938   2.25172   2.00980
53.0000      7.0000      220131    zatom,zion,pspd
8      11   3     4   600     0    pspcod,pspxc,lmax,lloc,mmax,r2well
5.99000000  4.00000000  0.00000000    rchrg fchrg qchrg
2     2     2     2     0    nproj
1     1           extension_switch
0                         7.5099481440096E+00  1.2036981911400E+00
1  0.0000000000000E+00 -1.8129026058133E-10  2.8557940734419E-10
2  1.0000000000000E-02  3.5399750624385E-02 -1.4329534633222E-02
3  2.0000000000000E-02  7.0682264158444E-02 -2.8517259398431E-02
4  3.0000000000000E-02  1.0573116390736E-01 -4.2422571749279E-02
5  4.0000000000000E-02  1.4043178755317E-01 -5.5907274144462E-02
6  5.0000000000000E-02  1.7467202835402E-01 -6.8836752527253E-02
7  6.0000000000000E-02  2.0834315728510E-01 -8.1081126180473E-02
8  7.0000000000000E-02  2.4134061998237E-01 -9.2516359752218E-02
9  8.0000000000000E-02  2.7356480253134E-01 -1.0302532853323E-01
10  9.0000000000000E-02  3.0492176036723E-01 -1.1249882841980E-01
11  1.0000000000000E-01  3.3532390481882E-01 -1.2083652241424E-01
12  1.1000000000000E-01  3.6469064213281E-01 -1.2794781599461E-01
13  1.2000000000000E-01  3.9294896015846E-01 -1.3375265422393E-01
14  1.3000000000000E-01  4.2003395824915E-01 -1.3818223406181E-01
15  1.4000000000000E-01  4.4588931634780E-01 -1.4117962598452E-01
16  1.5000000000000E-01  4.7046769966149E-01 -1.4270029970785E-01
17  1.6000000000000E-01  4.9373109579679E-01 -1.4271254953661E-01
18  1.7000000000000E-01  5.1565108171530E-01 -1.4119781562827E-01
19  1.8000000000000E-01  5.3620901837742E-01 -1.3815089825259E-01
20  1.9000000000000E-01  5.5539617146656E-01 -1.3358006294653E-01
21  2.0000000000000E-01  5.7321375712237E-01 -1.2750703529913E-01
22  2.1000000000000E-01  5.8967291215708E-01 -1.1996688494852E-01
23  2.2000000000000E-01  6.0479458877867E-01 -1.1100779922545E-01
24  2.3000000000000E-01  6.1860937439540E-01 -1.0069074773007E-01
25  2.4000000000000E-01  6.3115723762387E-01 -8.9089039972904E-02
26  2.5000000000000E-01  6.4248720216332E-01 -7.6287779042779E-02
27  2.6000000000000E-01  6.5265695072898E-01 -6.2383215076116E-02
28  2.7000000000000E-01  6.6173236175209E-01 -4.7482003088321E-02
29  2.8000000000000E-01  6.6978698205164E-01 -3.1700370482917E-02
30  2.9000000000000E-01  6.7690143915762E-01 -1.5163200271804E-02
31  3.0000000000000E-01  6.8316279741553E-01  1.9969632848108E-03
32  3.1000000000000E-01  6.8866386242342E-01  1.9640979282612E-02
33  3.2000000000000E-01  6.9350243874204E-01  3.7624237110252E-02
34  3.3000000000000E-01  6.9778054617461E-01  5.5797837289725E-02
35  3.4000000000000E-01  7.0160360023069E-01  7.4009817333154E-02
36  3.5000000000000E-01  7.0507956266771E-01  9.2106413336276E-02
37  3.6000000000000E-01  7.0831806824139E-01  1.0993334770363E-01
38  3.7000000000000E-01  7.1142953399068E-01  1.2733713314576E-01
39  3.8000000000000E-01  7.1452425753216E-01  1.4416638290616E-01
40  3.9000000000000E-01  7.1771151094306E-01  1.6027311706769E-01
41  4.0000000000000E-01  7.2109863686857E-01  1.7551405475511E-01
42  4.1000000000000E-01  7.2479015349913E-01  1.8975188209331E-01
43  4.2000000000000E-01  7.2888687502533E-01  2.0285648589965E-01
44  4.3000000000000E-01  7.3348505409311E-01  2.1470614328278E-01
45  4.4000000000000E-01  7.3867555264959E-01  2.2518865758888E-01
46  4.5000000000000E-01  7.4454304739187E-01  2.3420243147740E-01
47  4.6000000000000E-01  7.5116527580790E-01  2.4165746831955E-01
48  4.7000000000000E-01  7.5861232853182E-01  2.4747629359283E-01
49  4.8000000000000E-01  7.6694599342770E-01  2.5159478848830E-01
50  4.9000000000000E-01  7.7621915646751E-01  2.5396292855297E-01
51  5.0000000000000E-01  7.8647526408334E-01  2.5454542085113E-01
52  5.1000000000000E-01  7.9774785125401E-01  2.5332223384303E-01
53  5.2000000000000E-01  8.1006013913358E-01  2.5028901494056E-01
54  5.3000000000000E-01  8.2342470554867E-01  2.4545739150360E-01
55  5.4000000000000E-01  8.3784323118494E-01  2.3885515188010E-01
56  5.5000000000000E-01  8.5330632375473E-01  2.3052630396370E-01
57  5.6000000000000E-01  8.6979342189142E-01  2.2053100963690E-01
58  5.7000000000000E-01  8.8727277995492E-01  2.0894539438004E-01
59  5.8000000000000E-01  9.0570153436118E-01  1.9586123224982E-01
60  5.9000000000000E-01  9.2502585147078E-01  1.8138550735866E-01
61  6.0000000000000E-01  9.4518115649117E-01  1.6563985391192E-01
62  6.1000000000000E-01  9.6609244226839E-01  1.4875987777636E-01
63  6.2000000000000E-01  9.8767465627169E-01  1.3089436345345E-01
64  6.3000000000000E-01  1.0098331635112E+00  1.1220437120941E-01
65  6.4000000000000E-01  1.0324642825802E+00  9.2862229962524E-02
66  6.5000000000000E-01  1.0554558914826E+00  7.3050432341480E-02
67  6.6000000000000E-01  1.0786880993971E+00  5.2960439100281E-02
68  6.7000000000000E-01  1.1020339800456E+00  3.2791400799261E-02
69  6.8000000000000E-01  1.1253603618786E+00  1.2748805332519E-02
70  6.9000000000000E-01  1.1485286698697E+00 -6.9569395050897E-03
71  7.0000000000000E-01  1.1713958133203E+00 -2.6111978669323E-02
72  7.1000000000000E-01  1.1938151137329E+00 -4.4500527512209E-02
73  7.2000000000000E-01  1.2156372664973E+00 -6.1906423787863E-02
74  7.3000000000000E-01  1.2367113298747E+00 -7.8114703049237E-02
75  7.4000000000000E-01  1.2568857345438E+00 -9.2913186209139E-02
76  7.5000000000000E-01  1.2760093067982E+00 -1.0609406786195E-01
77  7.6000000000000E-01  1.2939322983668E+00 -1.1745549386727E-01
78  7.7000000000000E-01  1.3105074157470E+00 -1.2680311668521E-01
79  7.8000000000000E-01  1.3255908419223E+00 -1.3395161702474E-01
80  7.9000000000000E-01  1.3390432433602E+00 -1.3872618052252E-01
81  8.0000000000000E-01  1.3507307552598E+00 -1.4096391840865E-01
82  8.1000000000000E-01  1.3605259381507E+00 -1.4051522143670E-01
83  8.2000000000000E-01  1.3683086991161E+00 -1.3724503675632E-01
84  8.3000000000000E-01  1.3739671711382E+00 -1.3103405788554E-01
85  8.4000000000000E-01  1.3773985443371E+00 -1.2177981849329E-01
86  8.5000000000000E-01  1.3785098431849E+00 -1.0939768132678E-01
87  8.6000000000000E-01  1.3772186441410E+00 -9.3821714310024E-02
88  8.7000000000000E-01  1.3734537285488E+00 -7.5005446592980E-02
89  8.8000000000000E-01  1.3671556660717E+00 -5.2922498141922E-02
90  8.9000000000000E-01  1.3582773244186E+00 -2.7567077323600E-02
91  9.0000000000000E-01  1.3467843016081E+00  1.0456581562535E-03
92  9.1000000000000E-01  1.3326552775541E+00  3.2879380652278E-02
93  9.2000000000000E-01  1.3158822823066E+00  6.7876515029495E-02
94  9.3000000000000E-01  1.2964708788559E+00  1.0595830587139E-01
95  9.4000000000000E-01  1.2744402590007E+00  1.4702503012977E-01
96  9.5000000000000E-01  1.2498232513802E+00  1.9095635486559E-01
97  9.6000000000000E-01  1.2226662413795E+00  2.3761183869168E-01
98  9.7000000000000E-01  1.1930290032337E+00  2.8683157449394E-01
99  9.8000000000000E-01  1.1609844452628E+00  3.3843696998515E-01
100  9.9000000000000E-01  1.1266182697790E+00  3.9223166164187E-01
101  1.0000000000000E+00  1.0900285498023E+00  4.4800255659787E-01
102  1.0100000000000E+00  1.0513252253017E+00  5.0552099612469E-01
103  1.0200000000000E+00  1.0106295222436E+00  5.6454403342724E-01
104  1.0300000000000E+00  9.6807329826645E-01  6.2481581762792E-01
105  1.0400000000000E+00  9.2379831931873E-01  6.8606907501273E-01
106  1.0500000000000E+00  8.7795547207633E-01  7.4802667787202E-01
107  1.0600000000000E+00  8.3070391740812E-01  8.1040329059534E-01
108  1.0700000000000E+00  7.8221019056919E-01  8.7290708207666E-01
109  1.0800000000000E+00  7.3264725417378E-01  9.3524149295969E-01
110  1.0900000000000E+00  6.8219351032908E-01  9.9710704580703E-01
111  1.1000000000000E+00  6.3103177859450E-01  1.0582031859142E+00
112  1.1100000000000E+00  5.7934824666721E-01  1.1182301402143E+00
113  1.1200000000000E+00  5.2733140088144E-01  1.1768907815341E+00
114  1.1300000000000E+00  4.7517094374512E-01  1.2338924853664E+00
115  1.1400000000000E+00  4.2305670582145E-01  1.2889489663224E+00
116  1.1500000000000E+00  3.7117755929503E-01  1.3417820815180E+00
117  1.1600000000000E+00  3.1972034054104E-01  1.3921235883321E+00
118  1.1700000000000E+00  2.6886878894235E-01  1.4397168442477E+00
119  1.1800000000000E+00  2.1880250907409E-01  1.4843184368549E+00
120  1.1900000000000E+00  1.6969596319808E-01  1.5256997325425E+00
121  1.2000000000000E+00  1.2171750078247E-01  1.5636483329503E+00
122  1.2100000000000E+00  7.5028431487795E-02  1.5979694288626E+00
123  1.2200000000000E+00  2.9782147737963E-02  1.6284870419288E+00
124  1.2300000000000E+00 -1.3876697369712E-02  1.6550451453596E+00
125  1.2400000000000E+00 -5.5812951467864E-02  1.6775086555814E+00
126  1.2500000000000E+00 -9.5901658734177E-02  1.6957642877317E+00
127  1.2600000000000E+00 -1.3402868569467E-01  1.7097212688251E+00
128  1.2700000000000E+00 -1.7009127310412E-01  1.7193119034159E+00
129  1.2800000000000E+00 -2.0399851053180E-01  1.7244919876305E+00
130  1.2900000000000E+00 -2.3567173084102E-01  1.7252410685017E+00
131  1.3000000000000E+00 -2.6504482233527E-01  1.7215625466472E+00
132  1.3100000000000E+00 -2.9206445694036E-01  1.7134836214402E+00
133  1.3200000000000E+00 -3.1669023339803E-01  1.7010550789486E+00
134  1.3300000000000E+00 -3.3889473506226E-01  1.6843509240395E+00
135  1.3400000000000E+00 -3.5866350250419E-01  1.6634678591688E+00
136  1.3500000000000E+00 -3.7599492174458E-01  1.6385246134718E+00
137  1.3600000000000E+00 -3.9090002953534E-01  1.6096611268490E+00
138  1.3700000000000E+00 -4.0340223770739E-01  1.5770375947909E+00
139  1.3800000000000E+00 -4.1353697917578E-01  1.5408333806844E+00
140  1.3900000000000E+00 -4.2135127874970E-01  1.5012458033102E+00
141  1.4000000000000E+00 -4.2690325242312E-01  1.4584888081337E+00
142  1.4100000000000E+00 -4.3026153932503E-01  1.4127915318441E+00
143  1.4200000000000E+00 -4.3150467097543E-01  1.3643967703639E+00
144  1.4300000000000E+00 -4.3072038292521E-01  1.3135593612542E+00
145  1.4400000000000E+00 -4.2800487425125E-01  1.2605444920605E+00
146  1.4500000000000E+00 -4.2346202072728E-01  1.2056259466820E+00
147  1.4600000000000E+00 -4.1720254779705E-01  1.1490843022944E+00
148  1.4700000000000E+00 -4.0934316973404E-01  1.0912050897146E+00
149  1.4800000000000E+00 -4.0000570158033E-01  1.0322769303565E+00
150  1.4900000000000E+00 -3.8931615061568E-01  9.7258966309113E-01
151  1.5000000000000E+00 -3.7740379421403E-01  9.1243247439422E-01
152  1.5100000000000E+00 -3.6440025099824E-01  8.5209204512817E-01
153  1.5200000000000E+00 -3.5043855220511E-01  7.9185072717671E-01
154  1.5300000000000E+00 -3.3565222012065E-01  7.3198476291988E-01
155  1.5400000000000E+00 -3.2017436034146E-01  6.7276256021069E-01
156  1.5500000000000E+00 -3.0413677446277E-01  6.1444303509452E-01
157  1.5600000000000E+00 -2.8766909958788E-01  5.5727403399985E-01
158  1.5700000000000E+00 -2.7089798080012E-01  5.0149084652944E-01
159  1.5800000000000E+00 -2.5394628243785E-01  4.4731481929782E-01
160  1.5900000000000E+00 -2.3693234366908E-01  3.9495208049935E-01
161  1.6000000000000E+00 -2.1996928347690E-01  3.4459238405698E-01
162  1.6100000000000E+00 -2.0316435974322E-01  2.9640808130109E-01
163  1.6200000000000E+00 -1.8661838666069E-01  2.5055322716707E-01
164  1.6300000000000E+00 -1.7042521421299E-01  2.0716282688707E-01
165  1.6400000000000E+00 -1.5467127294770E-01  1.6635222809299E-01
166  1.6500000000000E+00 -1.3943518672609E-01  1.2821666215201E-01
167  1.6600000000000E+00 -1.2478745557641E-01  9.2830937431750E-02
168  1.6700000000000E+00 -1.1079021020446E-01  6.0249286047553E-02
169  1.6800000000000E+00 -9.7497039132483E-02  3.0505364486965E-02
170  1.6900000000000E+00 -8.4952888849997E-02  3.6124073474572E-03
171  1.7000000000000E+00 -7.3194036771880E-02 -2.0436467730511E-02
172  1.7100000000000E+00 -6.2248136214747E-02 -4.1667806992217E-02
173  1.7200000000000E+00 -5.2134332026921E-02 -6.0127223532707E-02
174  1.7300000000000E+00 -4.2863444944979E-02 -7.5878661554022E-02
175  1.7400000000000E+00 -3.4438222205824E-02 -8.9003528216417E-02
176  1.7500000000000E+00 -2.6853651419254E-02 -9.9599700383083E-02
177  1.7600000000000E+00 -2.0097334210369E-02 -1.0778041449655E-01
178  1.7700000000000E+00 -1.4149915674081E-02 -1.1367304870347E-01
179  1.7800000000000E+00 -8.9855652509302E-03 -1.1741780715284E-01
180  1.7900000000000E+00 -4.5725042376029E-03 -1.1916631712459E-01
181  1.8000000000000E+00 -8.7357478963379E-04 -1.1908015029701E-01
182  1.8100000000000E+00  2.1531550390070E-03 -1.1732928002522E-01
183  1.8200000000000E+00  4.5537559421958E-03 -1.1409048697708E-01
184  1.8300000000000E+00  6.3777776365326E-03 -1.0954572585148E-01
185  1.8400000000000E+00  7.6775708783307E-03 -1.0388046618582E-01
186  1.8500000000000E+00  8.5075974565410E-03 -9.7282020440914E-02
187  1.8600000000000E+00  8.9237344643192E-03 -8.9937872632708E-02
188  1.8700000000000E+00  8.9825791692049E-03 -8.2034020758912E-02
189  1.8800000000000E+00  8.7407651249339E-03 -7.3753353427604E-02
190  1.8900000000000E+00  8.2542423210811E-03 -6.5273984298726E-02
191  1.9000000000000E+00  7.5777865233264E-03 -5.6767990666267E-02
192  1.9100000000000E+00  6.7637090429058E-03 -4.8398834225538E-02
193  1.9200000000000E+00  5.8546767994631E-03 -4.0308985426962E-02
194  1.9300000000000E+00  4.8928073259325E-03 -3.2634760717968E-02
195  1.9400000000000E+00  3.9265810133550E-03 -2.5517510299426E-02
196  1.9500000000000E+00  2.9990365799081E-03 -1.9083563443951E-02
197  1.9600000000000E+00  2.1484902559476E-03 -1.3445167030874E-02
198  1.9700000000000E+00  1.4079153112077E-03 -8.6992120864837E-03
199  1.9800000000000E+00  8.0489639318488E-04 -4.9283042303484E-03
200  1.9900000000000E+00  3.5830573157256E-04 -2.1816469726890E-03
201  2.0000000000000E+00  9.1201903328595E-05 -5.5426830015815E-04
202  2.0100000000000E+00 -7.3846864980673E-07  3.9854578516659E-06
203  2.0200000000000E+00 -2.1777935327378E-06  1.3125117727783E-05
204  2.03  0. -0.
205  2.04 -0.  0.
206  2.05  0. -0.
207  2.06  0.  0.
208  2.07  0.  0.
209  2.08  0.  0.
210  2.09  0.  0.
211  2.10  0.  0.
212  2.11  0.  0.
213  2.12  0.  0.
214  2.13  0.  0.
215  2.14  0.  0.
216  2.15  0.  0.
217  2.16  0.  0.
218  2.17  0.  0.
219  2.18  0.  0.
220  2.19  0.  0.
221  2.20  0.  0.
222  2.21  0.  0.
223  2.22  0.  0.
224  2.23  0.  0.
225  2.24  0.  0.
226  2.25  0.  0.
227  2.26  0.  0.
228  2.27  0.  0.
229  2.28  0.  0.
230  2.29  0.  0.
231  2.30  0.  0.
232  2.31  0.  0.
233  2.32  0.  0.
234  2.33  0.  0.
235  2.34  0.  0.
236  2.35  0.  0.
237  2.36  0.  0.
238  2.37  0.  0.
239  2.38  0.  0.
240  2.39  0.  0.
241  2.40  0.  0.
242  2.41  0.  0.
243  2.42  0.  0.
244  2.43  0.  0.
245  2.44  0.  0.
246  2.45  0.  0.
247  2.46  0.  0.
248  2.47  0.  0.
249  2.48  0.  0.
250  2.49  0.  0.
251  2.50  0.  0.
252  2.51  0.  0.
253  2.52  0.  0.
254  2.53  0.  0.
255  2.54  0.  0.
256  2.55  0.  0.
257  2.56  0.  0.
258  2.57  0.  0.
259  2.58  0.  0.
260  2.59  0.  0.
261  2.60  0.  0.
262  2.61  0.  0.
263  2.62  0.  0.
264  2.63  0.  0.
265  2.64  0.  0.
266  2.65  0.  0.
267  2.66  0.  0.
268  2.67  0.  0.
269  2.68  0.  0.
270  2.69  0.  0.
271  2.70  0.  0.
272  2.71  0.  0.
273  2.72  0.  0.
274  2.73  0.  0.
275  2.74  0.  0.
276  2.75  0.  0.
277  2.76  0.  0.
278  2.77  0.  0.
279  2.78  0.  0.
280  2.79  0.  0.
281  2.80  0.  0.
282  2.81  0.  0.
283  2.82  0.  0.
284  2.83  0.  0.
285  2.84  0.  0.
286  2.85  0.  0.
287  2.86  0.  0.
288  2.87  0.  0.
289  2.88  0.  0.
290  2.89  0.  0.
291  2.90  0.  0.
292  2.91  0.  0.
293  2.92  0.  0.
294  2.93  0.  0.
295  2.94  0.  0.
296  2.95  0.  0.
297  2.96  0.  0.
298  2.97  0.  0.
299  2.98  0.  0.
300  2.99  0.  0.
301  3.00  0.  0.
302  3.01  0.  0.
303  3.02  0.  0.
304  3.03  0.  0.
305  3.04  0.  0.
306  3.05  0.  0.
307  3.06  0.  0.
308  3.07  0.  0.
309  3.08  0.  0.
310  3.09  0.  0.
311  3.10  0.  0.
312  3.11  0.  0.
313  3.12  0.  0.
314  3.13  0.  0.
315  3.14  0.  0.
316  3.15  0.  0.
317  3.16  0.  0.
318  3.17  0.  0.
319  3.18  0.  0.
320  3.19  0.  0.
321  3.20  0.  0.
322  3.21  0.  0.
323  3.22  0.  0.
324  3.23  0.  0.
325  3.24  0.  0.
326  3.25  0.  0.
327  3.26  0.  0.
328  3.27  0.  0.
329  3.28  0.  0.
330  3.29  0.  0.
331  3.30  0.  0.
332  3.31  0.  0.
333  3.32  0.  0.
334  3.33  0.  0.
335  3.34  0.  0.
336  3.35  0.  0.
337  3.36  0.  0.
338  3.37  0.  0.
339  3.38  0.  0.
340  3.39  0.  0.
341  3.40  0.  0.
342  3.41  0.  0.
343  3.42  0.  0.
344  3.43  0.  0.
345  3.44  0.  0.
346  3.45  0.  0.
347  3.46  0.  0.
348  3.47  0.  0.
349  3.48  0.  0.
350  3.49  0.  0.
351  3.50  0.  0.
352  3.51  0.  0.
353  3.52  0.  0.
354  3.53  0.  0.
355  3.54  0.  0.
356  3.55  0.  0.
357  3.56  0.  0.
358  3.57  0.  0.
359  3.58  0.  0.
360  3.59  0.  0.
361  3.60  0.  0.
362  3.61  0.  0.
363  3.62  0.  0.
364  3.63  0.  0.
365  3.64  0.  0.
366  3.65  0.  0.
367  3.66  0.  0.
368  3.67  0.  0.
369  3.68  0.  0.
370  3.69  0.  0.
371  3.70  0.  0.
372  3.71  0.  0.
373  3.72  0.  0.
374  3.73  0.  0.
375  3.74  0.  0.
376  3.75  0.  0.
377  3.76  0.  0.
378  3.77  0.  0.
379  3.78  0.  0.
380  3.79  0.  0.
381  3.80  0.  0.
382  3.81  0.  0.
383  3.82  0.  0.
384  3.83  0.  0.
385  3.84  0.  0.
386  3.85  0.  0.
387  3.86  0.  0.
388  3.87  0.  0.
389  3.88  0.  0.
390  3.89  0.  0.
391  3.90  0.  0.
392  3.91  0.  0.
393  3.92  0.  0.
394  3.93  0.  0.
395  3.94  0.  0.
396  3.95  0.  0.
397  3.96  0.  0.
398  3.97  0.  0.
399  3.98  0.  0.
400  3.99  0.  0.
401  4.00  0.  0.
402  4.01  0.  0.
403  4.02  0.  0.
404  4.03  0.  0.
405  4.04  0.  0.
406  4.05  0.  0.
407  4.06  0.  0.
408  4.07  0.  0.
409  4.08  0.  0.
410  4.09  0.  0.
411  4.10  0.  0.
412  4.11  0.  0.
413  4.12  0.  0.
414  4.13  0.  0.
415  4.14  0.  0.
416  4.15  0.  0.
417  4.16  0.  0.
418  4.17  0.  0.
419  4.18  0.  0.
420  4.19  0.  0.
421  4.20  0.  0.
422  4.21  0.  0.
423  4.22  0.  0.
424  4.23  0.  0.
425  4.24  0.  0.
426  4.25  0.  0.
427  4.26  0.  0.
428  4.27  0.  0.
429  4.28  0.  0.
430  4.29  0.  0.
431  4.30  0.  0.
432  4.31  0.  0.
433  4.32  0.  0.
434  4.33  0.  0.
435  4.34  0.  0.
436  4.35  0.  0.
437  4.36  0.  0.
438  4.37  0.  0.
439  4.38  0.  0.
440  4.39  0.  0.
441  4.40  0.  0.
442  4.41  0.  0.
443  4.42  0.  0.
444  4.43  0.  0.
445  4.44  0.  0.
446  4.45  0.  0.
447  4.46  0.  0.
448  4.47  0.  0.
449  4.48  0.  0.
450  4.49  0.  0.
451  4.50  0.  0.
452  4.51  0.  0.
453  4.52  0.  0.
454  4.53  0.  0.
455  4.54  0.  0.
456  4.55  0.  0.
457  4.56  0.  0.
458  4.57  0.  0.
459  4.58  0.  0.
460  4.59  0.  0.
461  4.60  0.  0.
462  4.61  0.  0.
463  4.62  0.  0.
464  4.63  0.  0.
465  4.64  0.  0.
466  4.65  0.  0.
467  4.66  0.  0.
468  4.67  0.  0.
469  4.68  0.  0.
470  4.69  0.  0.
471  4.70  0.  0.
472  4.71  0.  0.
473  4.72  0.  0.
474  4.73  0.  0.
475  4.74  0.  0.
476  4.75  0.  0.
477  4.76  0.  0.
478  4.77  0.  0.
479  4.78  0.  0.
480  4.79  0.  0.
481  4.80  0.  0.
482  4.81  0.  0.
483  4.82  0.  0.
484  4.83  0.  0.
485  4.84  0.  0.
486  4.85  0.  0.
487  4.86  0.  0.
488  4.87  0.  0.
489  4.88  0.  0.
490  4.89  0.  0.
491  4.90  0.  0.
492  4.91  0.  0.
493  4.92  0.  0.
494  4.93  0.  0.
495  4.94  0.  0.
496  4.95  0.  0.
497  4.96  0.  0.
498  4.97  0.  0.
499  4.98  0.  0.
500  4.99  0.  0.
501  5.00  0.  0.
502  5.01  0.  0.
503  5.02  0.  0.
504  5.03  0.  0.
505  5.04  0.  0.
506  5.05  0.  0.
507  5.06  0.  0.
508  5.07  0.  0.
509  5.08  0.  0.
510  5.09  0.  0.
511  5.10  0.  0.
512  5.11  0.  0.
513  5.12  0.  0.
514  5.13  0.  0.
515  5.14  0.  0.
516  5.15  0.  0.
517  5.16  0.  0.
518  5.17  0.  0.
519  5.18  0.  0.
520  5.19  0.  0.
521  5.20  0.  0.
522  5.21  0.  0.
523  5.22  0.  0.
524  5.23  0.  0.
525  5.24  0.  0.
526  5.25  0.  0.
527  5.26  0.  0.
528  5.27  0.  0.
529  5.28  0.  0.
530  5.29  0.  0.
531  5.30  0.  0.
532  5.31  0.  0.
533  5.32  0.  0.
534  5.33  0.  0.
535  5.34  0.  0.
536  5.35  0.  0.
537  5.36  0.  0.
538  5.37  0.  0.
539  5.38  0.  0.
540  5.39  0.  0.
541  5.40  0.  0.
542  5.41  0.  0.
543  5.42  0.  0.
544  5.43  0.  0.
545  5.44  0.  0.
546  5.45  0.  0.
547  5.46  0.  0.
548  5.47  0.  0.
549  5.48  0.  0.
550  5.49  0.  0.
551  5.50  0.  0.
552  5.51  0.  0.
553  5.52  0.  0.
554  5.53  0.  0.
555  5.54  0.  0.
556  5.55  0.  0.
557  5.56  0.  0.
558  5.57  0.  0.
559  5.58  0.  0.
560  5.59  0.  0.
561  5.60  0.  0.
562  5.61  0.  0.
563  5.62  0.  0.
564  5.63  0.  0.
565  5.64  0.  0.
566  5.65  0.  0.
567  5.66  0.  0.
568  5.67  0.  0.
569  5.68  0.  0.
570  5.69  0.  0.
571  5.70  0.  0.
572  5.71  0.  0.
573  5.72  0.  0.
574  5.73  0.  0.
575  5.74  0.  0.
576  5.75  0.  0.
577  5.76  0.  0.
578  5.77  0.  0.
579  5.78  0.  0.
580  5.79  0.  0.
581  5.80  0.  0.
582  5.81  0.  0.
583  5.82  0.  0.
584  5.83  0.  0.
585  5.84  0.  0.
586  5.85  0.  0.
587  5.86  0.  0.
588  5.87  0.  0.
589  5.88  0.  0.
590  5.89  0.  0.
591  5.90  0.  0.
592  5.91  0.  0.
593  5.92  0.  0.
594  5.93  0.  0.
595  5.94  0.  0.
596  5.95  0.  0.
597  5.96  0.  0.
598  5.97  0.  0.
599  5.98  0.  0.
600  5.99  0.  0.
1                         4.0034333534205E+00  6.9117570678197E-01
1  0.0000000000000E+00  1.2701993623576E-10 -1.4694857700462E-10
2  1.0000000000000E-02  4.2673041623601E-04 -6.1960928767315E-05
3  2.0000000000000E-02  1.7056198244894E-03 -2.4737709797038E-04
4  3.0000000000000E-02  3.8327714117560E-03 -5.5485568325882E-04
5  4.0000000000000E-02  6.8017194500284E-03 -9.8209865462583E-04
6  5.0000000000000E-02  1.0603472500989E-02 -1.5259375158386E-03
7  6.0000000000000E-02  1.5226573432777E-02 -2.1823813893216E-03
8  7.0000000000000E-02  2.0657175783281E-02 -2.9466779022816E-03
9  8.0000000000000E-02  2.6879135877405E-02 -3.8133861829138E-03
10  9.0000000000000E-02  3.3874119983245E-02 -4.7764611350459E-03
11  1.0000000000000E-01  4.1621725674929E-02 -5.8293480266269E-03
12  1.1000000000000E-01  5.0099616459060E-02 -6.9650863035825E-03
13  1.2000000000000E-01  5.9283668617874E-02 -8.1764214265714E-03
14  1.3000000000000E-01  6.9148129126399E-02 -9.4559234254797E-03
15  1.4000000000000E-01  7.9665783413649E-02 -1.0796110775883E-02
16  1.5000000000000E-01  9.0808131659969E-02 -1.2189578124190E-02
17  1.6000000000000E-01  1.0254557225460E-01 -1.3629126324437E-02
18  1.7000000000000E-01  1.1484759097995E-01 -1.5107893200518E-02
19  1.8000000000000E-01  1.2768295444226E-01 -1.6619483413511E-02
20  1.9000000000000E-01  1.4101990623310E-01 -1.8158095795060E-02
21  2.0000000000000E-01  1.5482636428191E-01 -1.9718646504929E-02
22  2.1000000000000E-01  1.6907011784791E-01 -2.1296886383870E-02
23  2.2000000000000E-01  1.8371902259931E-01 -2.2889510901993E-02
24  2.3000000000000E-01  1.9874119223939E-01 -2.4494261147698E-02
25  2.4000000000000E-01  2.1410518516250E-01 -2.6110014362737E-02
26  2.5000000000000E-01  2.2978018465830E-01 -2.7736862604748E-02
27  2.6000000000000E-01  2.4573617122912E-01 -2.9376178209003E-02
28  2.7000000000000E-01  2.6194408564331E-01 -3.1030664825781E-02
29  2.8000000000000E-01  2.7837598141609E-01 -3.2704392927593E-02
30  2.9000000000000E-01  2.9500516548819E-01 -3.4402818810850E-02
31  3.0000000000000E-01  3.1180632596139E-01 -3.6132786258384E-02
32  3.1000000000000E-01  3.2875564584797E-01 -3.7902510181353E-02
33  3.2000000000000E-01  3.4583090189692E-01 -3.9721541720349E-02
34  3.3000000000000E-01  3.6301154767412E-01 -4.1600714454710E-02
35  3.4000000000000E-01  3.8027878019402E-01 -4.3552071544685E-02
36  3.5000000000000E-01  3.9761558952719E-01 -4.5588773811805E-02
37  3.6000000000000E-01  4.1500679093982E-01 -4.7724988947116E-02
38  3.7000000000000E-01  4.3243903925698E-01 -4.9975762223253E-02
39  3.8000000000000E-01  4.4990082528029E-01 -5.2356869273069E-02
40  3.9000000000000E-01  4.6738245423174E-01 -5.4884651683211E-02
41  4.0000000000000E-01  4.8487600633704E-01 -5.7575836333865E-02
42  4.1000000000000E-01  5.0237527980405E-01 -6.0447339594467E-02
43  4.2000000000000E-01  5.1987571659249E-01 -6.3516057657762E-02
44  4.3000000000000E-01  5.3737431150974E-01 -6.6798644459664E-02
45  4.4000000000000E-01  5.5486950530313E-01 -7.0311278788508E-02
46  4.5000000000000E-01  5.7236106255012E-01 -7.4069422332900E-02
47  4.6000000000000E-01  5.8984993527394E-01 -7.8087570551068E-02
48  4.7000000000000E-01  6.0733811333188E-01 -8.2378998365292E-02
49  4.8000000000000E-01  6.2482846273626E-01 -8.6955502791027E-02
50  4.9000000000000E-01  6.4232455317260E-01 -9.1827144701061E-02
51  5.0000000000000E-01  6.5983047607557E-01 -9.7001991999023E-02
52  5.1000000000000E-01  6.7735065470924E-01 -1.0248586653320E-01
53  5.2000000000000E-01  6.9488964777454E-01 -1.0828209712001E-01
54  5.3000000000000E-01  7.1245194813152E-01 -1.1439128106587E-01
55  5.4000000000000E-01  7.3004177827787E-01 -1.2081105657665E-01
56  5.5000000000000E-01  7.4766288426667E-01 -1.2753588842384E-01
57  5.6000000000000E-01  7.6531832977584E-01 -1.3455686919777E-01
58  5.7000000000000E-01  7.8301029205841E-01 -1.4186153841824E-01
59  5.8000000000000E-01  8.0073986150676E-01 -1.4943372169416E-01
60  5.9000000000000E-01  8.1850684655487E-01 -1.5725339202486E-01
61  6.0000000000000E-01  8.3630958562094E-01 -1.6529655521794E-01
62  6.1000000000000E-01  8.5414476775763E-01 -1.7353516126235E-01
63  6.2000000000000E-01  8.7200726362993E-01 -1.8193704334112E-01
64  6.3000000000000E-01  8.8988996838064E-01 -1.9046588599734E-01
65  6.4000000000000E-01  9.0778365787138E-01 -1.9908122378020E-01
66  6.5000000000000E-01  9.2567685970358E-01 -2.0773847149669E-01
67  6.6000000000000E-01  9.4355574032884E-01 -2.1638898697946E-01
68  6.7000000000000E-01  9.6140400945327E-01 -2.2498016705536E-01
69  6.8000000000000E-01  9.7920284282498E-01 -2.3345557716173E-01
70  6.9000000000000E-01  9.9693082436998E-01 -2.4175511481235E-01
71  7.0000000000000E-01  1.0145639085099E+00 -2.4981520686219E-01
72  7.1000000000000E-01  1.0320754033548E+00 -2.5756904026279E-01
73  7.2000000000000E-01  1.0494359753192E+00 -2.6494682573907E-01
74  7.3000000000000E-01  1.0666136755580E+00 -2.7187609355644E-01
75  7.4000000000000E-01  1.0835739884642E+00 -2.7828202028575E-01
76  7.5000000000000E-01  1.1002799023108E+00 -2.8408778521505E-01
77  7.6000000000000E-01  1.1166920019610E+00 -2.8921495480315E-01
78  7.7000000000000E-01  1.1327685834063E+00 -2.9358389332312E-01
79  7.8000000000000E-01  1.1484657897347E+00 -2.9711419760529E-01
80  7.9000000000000E-01  1.1637377679702E+00 -2.9972515356186E-01
81  8.0000000000000E-01  1.1785368460655E+00 -3.0133621195999E-01
82  8.1000000000000E-01  1.1928137291828E+00 -3.0186748070983E-01
83  8.2000000000000E-01  1.2065177142420E+00 -3.0124023074939E-01
84  8.3000000000000E-01  1.2195969215804E+00 -2.9937741244134E-01
85  8.4000000000000E-01  1.2319985424272E+00 -2.9620417925014E-01
86  8.5000000000000E-01  1.2436691007734E+00 -2.9164841534052E-01
87  8.6000000000000E-01  1.2545547280969E+00 -2.8564126363480E-01
88  8.7000000000000E-01  1.2646014492961E+00 -2.7811765078478E-01
89  8.8000000000000E-01  1.2737554780872E+00 -2.6901680545677E-01
90  8.9000000000000E-01  1.2819635200355E+00 -2.5828276629677E-01
91  9.0000000000000E-01  1.2891730813166E+00 -2.4586487593557E-01
92  9.1000000000000E-01  1.2953327812424E+00 -2.3171825741379E-01
93  9.2000000000000E-01  1.3003926665426E+00 -2.1580426945203E-01
94  9.3000000000000E-01  1.3043045253523E+00 -1.9809093706421E-01
95  9.4000000000000E-01  1.3070221988444E+00 -1.7855335411001E-01
96  9.5000000000000E-01  1.3085018884339E+00 -1.5717405450719E-01
97  9.6000000000000E-01  1.3087024564928E+00 -1.3394334897408E-01
98  9.7000000000000E-01  1.3075857185391E+00 -1.0885962434713E-01
99  9.8000000000000E-01  1.3051167248965E+00 -8.1929602716539E-02
100  9.9000000000000E-01  1.3012640298795E+00 -5.3168557844150E-02
101  1.0000000000000E+00  1.2959999466167E+00 -2.2600486569754E-02
102  1.0100000000000E+00  1.2893007857115E+00  9.7417668254679E-03
103  1.0200000000000E+00  1.2811470760252E+00  4.3816435049131E-02
104  1.0300000000000E+00  1.2715237659747E+00  7.9572802475116E-02
105  1.0400000000000E+00  1.2604204038521E+00  1.1695123121028E-01
106  1.0500000000000E+00  1.2478312957993E+00  1.5588323936767E-01
107  1.0600000000000E+00  1.2337556402081E+00  1.9629163202907E-01
108  1.0700000000000E+00  1.2181976374612E+00  2.3809068503660E-01
109  1.0800000000000E+00  1.2011665740831E+00  2.8118638140421E-01
110  1.0900000000000E+00  1.1826768805317E+00  3.2547669978818E-01
111  1.1000000000000E+00  1.1627481620251E+00  3.7085195410216E-01
112  1.1100000000000E+00  1.1414052019727E+00  4.1719518301158E-01
113  1.1200000000000E+00  1.1186779377524E+00  4.6438258769439E-01
114  1.1300000000000E+00  1.0946014087531E+00  5.1228401591497E-01
115  1.1400000000000E+00  1.0692156767798E+00  5.6076349012643E-01
116  1.1500000000000E+00  1.0425657190975E+00  6.0967977699703E-01
117  1.1600000000000E+00  1.0147012945654E+00  6.5888699545057E-01
118  1.1700000000000E+00  9.8567678348768E-01  7.0823526002151E-01
119  1.1800000000000E+00  9.5555100197677E-01  7.5757135605485E-01
120  1.1900000000000E+00  9.2438699178954E-01  8.0673944303116E-01
121  1.2000000000000E+00  8.9225178675670E-01  8.5558178206949E-01
122  1.2100000000000E+00  8.5921615707533E-01  9.0393948345924E-01
123  1.2200000000000E+00  8.2535433287849E-01  9.5165326989484E-01
124  1.2300000000000E+00  7.9074370862836E-01  9.9856425093952E-01
125  1.2400000000000E+00  7.5546453000267E-01  1.0445147041245E+00
126  1.2500000000000E+00  7.1959956505567E-01  1.0893488580010E+00
127  1.2600000000000E+00  6.8323376153436E-01  1.1329136724055E+00
128  1.2700000000000E+00  6.4645389231739E-01  1.1750596111702E+00
129  1.2800000000000E+00  6.0934819101782E-01  1.2156414025198E+00
130  1.2900000000000E+00  5.7200597984992E-01  1.2545187824332E+00
131  1.3000000000000E+00  5.3451729190601E-01  1.2915572163186E+00
132  1.3100000000000E+00  4.9697249001945E-01  1.3266285944581E+00
133  1.3200000000000E+00  4.5946188440642E-01  1.3596118968089E+00
134  1.3300000000000E+00  4.2207535127958E-01  1.3903938229184E+00