<?xml version="1.0" encoding="UTF-8" ?>
<psml version="1.1" energy_unit="hartree" length_unit="bohr"
 uuid="7aebeac0-c73c-11ed-6877-65c2f75f2387"
 xmlns="http://esl.cecam.org/PSML/ns/1.1">
<provenance creator="ONCVPSP-4.0.1+psml-4.0.1-76 (scalar-relativistic)"
 date="2023-03-20">
<annotation action="semilocal-pseudopotential-generation"
 action-cont="projectors-generation" />
<input-file name="oncvpsp-input">
<![CDATA[# atsym z nc nv iexc psfile
I 53 9 2 4 both
# n l f
1 0 2.0
2 0 2.0
2 1 6.0
3 0 2.0
3 1 6.0
3 2 10.0
4 0 2.0
4 1 6.0
4 2 10.0
5 0 2.0
5 1 5.0
# lmax
3
# l rc ep ncon nbas qcut
0 2.0 0.0 4 7 3.7
1 2.15 0.0 4 7 4.0
2 2.25 0.05 4 8 4.6
3 2.0 0.05 4 8 6.0
# lloc lpopt rc5 dvloc0
4 5 2.0 0.0
# l nproj debl
0 2 4.2
1 2 2.5
2 2 3.0
3 2 2.0
# icmod fcfact rcfact
3 4 1.34
# epsh1 epsh2 depsh
-12.0 12.0 0.02
# rlmax drl
6.0 0.01
 0
]]>
</input-file>
</provenance>
<pseudo-atom-spec atomic-label="I" atomic-number="53" z-pseudo="7"
 flavor="Hamann&apos;s oncvpsp" relativity="scalar" spin-dft="no"
 core-corrections="yes">
<annotation pseudo-energy="-11.5687896139" cutoff_hint_low="30"
 cutoff_hint_normal="33" cutoff_hint_high="36" />
<exchange-correlation>
<annotation oncvpsp-xc-code="4" oncvpsp-xc-type="GGA -- Perdew-Burke-Ernzerhof" />
<libxc-info number-of-functionals="2">
<functional name="Perdew, Burke &amp; Ernzerhof (GGA)" type="exchange" id="101" />
<functional name="Perdew, Burke &amp; Ernzerhof (GGA)" type="correlation"
 id="130" />
</libxc-info>
</exchange-correlation>
<valence-configuration total-valence-charge="7">
<shell n="5" l="s" occupation="2" />
<shell n="5" l="p" occupation="5" />
</valence-configuration>
</pseudo-atom-spec>
<grid npts="797">
<annotation type="sampled from oncvpsp log grid"
 recipe="r(i:1..N) = r1*exp(a*(i-1)) + r=0; resampled"
 recipe-cont="r1: scale; a: step" scale="0.943396226415E-05"
 step="0.598207167755E-02" delta="0.500000000000E-02" rmax="44.5560419514" />
<grid-data>
  0.000000000000E+00  5.011594338128E-03  1.003094094095E-02  1.506622199765E-02
  2.007739840300E-02  2.520175030298E-02  3.033668391779E-02  3.544178652072E-02
  4.066953078713E-02  4.583832888381E-02  5.104961007715E-02  5.617720408582E-02
  6.145112408536E-02  6.681924460983E-02  7.222296454539E-02  7.759809857209E-02
  8.287601637686E-02  8.798500737110E-02  9.340894821597E-02  9.857579957367E-02
  1.040284517402E-01  1.091279459141E-01  1.144774182469E-01  1.200891227146E-01
  1.252245665860E-01  1.305796205534E-01  1.361636759361E-01  1.419865256605E-01
  1.471753294568E-01  1.525537546605E-01  1.581287308608E-01  1.639074408840E-01
  1.698973300481E-01  1.750557810688E-01  1.803708538383E-01  1.858473037320E-01
  1.914900305093E-01  1.973040826963E-01  2.032946621039E-01  2.094671284807E-01
  2.145397657151E-01  2.197352463221E-01  2.250565451830E-01  2.305067092217E-01
  2.360888591488E-01  2.418061912486E-01  2.476619792098E-01  2.536595759993E-01
  2.598024157823E-01  2.660940158889E-01  2.725379788278E-01  2.791379943491E-01
  2.841926854446E-01  2.893389079782E-01  2.945783194211E-01  2.999126072581E-01
  3.053434895314E-01  3.108727153941E-01  3.165020656729E-01  3.222333534426E-01
  3.280684246091E-01  3.340091585047E-01  3.400574684929E-01  3.462153025848E-01
  3.524846440665E-01  3.588675121379E-01  3.653659625631E-01  3.719820883322E-01
  3.787180203359E-01  3.855759280512E-01  3.925580202408E-01  3.996665456638E-01
  4.069037938007E-01  4.142720955900E-01  4.217738241798E-01  4.268502939276E-01
  4.319878640653E-01  4.371872699972E-01  4.424492559789E-01  4.477745752238E-01
  4.531639900112E-01  4.586182717950E-01  4.641382013143E-01  4.697245687054E-01
  4.753781736143E-01  4.810998253119E-01  4.868903428094E-01  4.927505549754E-01
  4.986813006551E-01  5.046834287898E-01  5.107577985387E-01  5.169052794019E-01
  5.231267513448E-01  5.294231049240E-01  5.357952414149E-01  5.422440729405E-01
  5.487705226024E-01  5.553755246125E-01  5.620600244267E-01  5.688249788807E-01
  5.756713563265E-01  5.826001367713E-01  5.896123120174E-01  5.967088858049E-01
  6.038908739544E-01  6.111593045134E-01  6.185152179025E-01  6.259596670651E-01
  6.334937176179E-01  6.411184480032E-01  6.488349496434E-01  6.566443270973E-01
  6.645476982182E-01  6.725461943140E-01  6.806409603087E-01  6.888331549070E-01
  6.971239507595E-01  7.055145346308E-01  7.140061075696E-01  7.225998850803E-01
  7.312970972972E-01  7.400989891602E-01  7.490068205938E-01  7.580218666864E-01
  7.671454178739E-01  7.763787801234E-01  7.857232751210E-01  7.951802404603E-01
  8.047510298345E-01  8.144370132296E-01  8.242395771208E-01  8.341601246710E-01
  8.391650854191E-01  8.442000759316E-01  8.492652763872E-01  8.543608680455E-01
  8.594870332538E-01  8.646439554533E-01  8.698318191860E-01  8.750508101011E-01
  8.803011149617E-01  8.855829216515E-01  8.908964191814E-01  8.962417976965E-01
  9.016192484827E-01  9.070289639736E-01  9.124711377574E-01  9.179459645840E-01
  9.234536403715E-01  9.289943622137E-01  9.345683283870E-01  9.401757383573E-01
  9.458167927874E-01  9.514916935442E-01  9.572006437054E-01  9.629438475677E-01
  9.687215106531E-01  9.745338397170E-01  9.803810427553E-01  9.862633290118E-01
  9.921809089859E-01  9.981339944398E-01  1.004122798406E+00  1.010147535197E+00
  1.016208420408E+00  1.022305670931E+00  1.028439504956E+00  1.034610141986E+00
  1.040817802838E+00  1.047062709655E+00  1.053345085913E+00  1.059665156428E+00
  1.066023147367E+00  1.072419286251E+00  1.078853801968E+00  1.085326924780E+00
  1.091838886329E+00  1.098389919647E+00  1.104980259165E+00  1.111610140720E+00
  1.118279801564E+00  1.124989480373E+00  1.131739417256E+00  1.138529853759E+00
  1.145361032882E+00  1.152233199079E+00  1.159146598274E+00  1.166101477863E+00
  1.173098086730E+00  1.180136675251E+00  1.187217495302E+00  1.194340800274E+00
  1.201506845076E+00  1.208715886146E+00  1.215968181463E+00  1.223263990552E+00
  1.230603574495E+00  1.237987195942E+00  1.245415119118E+00  1.252887609833E+00
  1.260404935492E+00  1.267967365104E+00  1.275575169295E+00  1.283228620311E+00
  1.290927992033E+00  1.298673559985E+00  1.306465601345E+00  1.314304394953E+00
  1.322190221323E+00  1.330123362651E+00  1.338104102826E+00  1.346132727443E+00
  1.354209523808E+00  1.362334780951E+00  1.370508789637E+00  1.378731842374E+00
  1.387004233429E+00  1.395326258829E+00  1.403698216382E+00  1.412120405681E+00
  1.420593128115E+00  1.429116686883E+00  1.437691387005E+00  1.446317535327E+00
  1.454995440539E+00  1.463725413182E+00  1.472507765661E+00  1.481342812255E+00
  1.490230869128E+00  1.499172254343E+00  1.508167287869E+00  1.517216291596E+00
  1.526319589346E+00  1.535477506882E+00  1.544690371923E+00  1.553958514155E+00
  1.563282265240E+00  1.572661958831E+00  1.582097930584E+00  1.591590518168E+00
  1.601140061277E+00  1.610746901644E+00  1.620411383054E+00  1.630133851353E+00
  1.639914654461E+00  1.649754142388E+00  1.659652667242E+00  1.669610583245E+00
  1.679628246745E+00  1.689706016225E+00  1.699844252323E+00  1.710043317837E+00
  1.720303577744E+00  1.730625399210E+00  1.741009151605E+00  1.751455206515E+00
  1.761963937754E+00  1.772535721381E+00  1.783170935709E+00  1.793869961323E+00
  1.804633181091E+00  1.815460980178E+00  1.826353746059E+00  1.837311868535E+00
  1.848335739746E+00  1.859425754185E+00  1.870582308710E+00  1.881805802562E+00
  1.893096637377E+00  1.904455217202E+00  1.915881948505E+00  1.927377240196E+00
  1.938941503637E+00  1.950575152659E+00  1.962278603575E+00  1.974052275196E+00
  1.985896588847E+00  1.997811968381E+00  2.009798840191E+00  2.021857633232E+00
  2.033988779031E+00  2.046192711706E+00  2.058469867976E+00  2.070820687184E+00
  2.083245611307E+00  2.095745084975E+00  2.108319555484E+00  2.120969472817E+00
  2.133695289654E+00  2.146497461392E+00  2.159376446161E+00  2.172332704838E+00
  2.185366701067E+00  2.198478901273E+00  2.211669774681E+00  2.224939793329E+00
  2.238289432089E+00  2.251719168681E+00  2.265229483693E+00  2.278820860595E+00
  2.292493785759E+00  2.306248748474E+00  2.320086240964E+00  2.334006758410E+00
  2.348010798961E+00  2.362098863754E+00  2.376271456937E+00  2.390529085679E+00
  2.404872260193E+00  2.419301493754E+00  2.433817302716E+00  2.448420206533E+00
  2.463110727772E+00  2.477889392138E+00  2.492756728491E+00  2.507713268862E+00
  2.522759548475E+00  2.537896105766E+00  2.553123482401E+00  2.568442223295E+00
  2.583852876635E+00  2.599355993895E+00  2.614952129858E+00  2.630641842637E+00
  2.646425693693E+00  2.662304247855E+00  2.678278073342E+00  2.694347741782E+00
  2.710513828233E+00  2.726776911203E+00  2.743137572670E+00  2.759596398106E+00
  2.776153976494E+00  2.792810900353E+00  2.809567765756E+00  2.826425172350E+00
  2.843383723384E+00  2.860444025724E+00  2.877606689879E+00  2.894872330018E+00
  2.912241563998E+00  2.929715013382E+00  2.947293303462E+00  2.964977063283E+00
  2.982766925663E+00  3.000663527217E+00  3.018667508380E+00  3.036779513431E+00
  3.055000190511E+00  3.073330191654E+00  3.091770172804E+00  3.110320793841E+00
  3.128982718604E+00  3.147756614916E+00  3.166643154605E+00  3.185643013533E+00
  3.204756871614E+00  3.223985412844E+00  3.243329325321E+00  3.262789301273E+00
  3.282366037080E+00  3.302060233303E+00  3.321872594702E+00  3.341803830271E+00
  3.361854653252E+00  3.382025781172E+00  3.402317935859E+00  3.422731843474E+00
  3.443268234535E+00  3.463927843942E+00  3.484711411006E+00  3.505619679472E+00
  3.526653397549E+00  3.547813317934E+00  3.569100197841E+00  3.590514799029E+00
  3.612057887823E+00  3.633730235150E+00  3.655532616561E+00  3.677465812260E+00
  3.699530607133E+00  3.721727790776E+00  3.744058157521E+00  3.766522506466E+00
  3.789121641505E+00  3.811856371354E+00  3.834727509582E+00  3.857735874639E+00
  3.880882289887E+00  3.904167583627E+00  3.927592589128E+00  3.951158144663E+00
  3.974865093531E+00  3.998714284092E+00  4.022706569797E+00  4.046842809216E+00
  4.071123866071E+00  4.095550609267E+00  4.120123912923E+00  4.144844656401E+00
  4.169713724339E+00  4.194732006685E+00  4.219900398725E+00  4.245219801117E+00
  4.270691119924E+00  4.296315266644E+00  4.322093158244E+00  4.348025717193E+00
  4.374113871496E+00  4.400358554725E+00  4.426760706054E+00  4.453321270290E+00
  4.480041197912E+00  4.506921445099E+00  4.533962973770E+00  4.561166751612E+00
  4.588533752122E+00  4.616064954635E+00  4.643761344362E+00  4.671623912429E+00
  4.699653655903E+00  4.727851577839E+00  4.756218687306E+00  4.784755999429E+00
  4.813464535426E+00  4.842345322639E+00  4.871399394574E+00  4.900627790942E+00
  4.930031557688E+00  4.959611747034E+00  4.989369417516E+00  5.019305634021E+00
  5.049421467825E+00  5.079717996632E+00  5.110196304612E+00  5.140857482440E+00
  5.171702627334E+00  5.202732843098E+00  5.233949240157E+00  5.265352935598E+00
  5.296945053211E+00  5.328726723531E+00  5.360699083872E+00  5.392863278375E+00
  5.425220458045E+00  5.457771780793E+00  5.490518411478E+00  5.523461521947E+00
  5.556602291079E+00  5.589941904825E+00  5.623481556254E+00  5.657222445592E+00
  5.691165780265E+00  5.725312774947E+00  5.759664651597E+00  5.794222639506E+00
  5.828987975343E+00  5.863961903195E+00  5.899145674614E+00  5.934540548662E+00
  5.970147791954E+00  6.005968678706E+00  6.042004490778E+00  6.078256517723E+00
  6.114726056829E+00  6.151414413170E+00  6.188322899649E+00  6.225452837047E+00
  6.262805554069E+00  6.300382387394E+00  6.338184681718E+00  6.376213789808E+00
  6.414471072547E+00  6.452957898982E+00  6.491675646376E+00  6.530625700255E+00
  6.569809454456E+00  6.609228311183E+00  6.648883681050E+00  6.688776983136E+00
  6.728909645035E+00  6.769283102905E+00  6.809898801523E+00  6.850758194332E+00
  6.891862743498E+00  6.933213919959E+00  6.974813203479E+00  7.016662082699E+00
  7.058762055196E+00  7.101114627527E+00  7.143721315292E+00  7.186583643184E+00
  7.229703145043E+00  7.273081363913E+00  7.316719852097E+00  7.360620171209E+00
  7.404783892236E+00  7.449212595590E+00  7.493907871163E+00  7.538871318390E+00
  7.584104546301E+00  7.629609173578E+00  7.675386828620E+00  7.721439149592E+00
  7.767767784489E+00  7.814374391196E+00  7.861260637543E+00  7.908428201369E+00
  7.955878770577E+00  8.003614043200E+00  8.051635727459E+00  8.099945541824E+00
  8.148545215075E+00  8.197436486366E+00  8.246621105284E+00  8.296100831916E+00
  8.345877436907E+00  8.395952701528E+00  8.446328417738E+00  8.497006388244E+00
  8.547988426574E+00  8.599276357133E+00  8.650872015276E+00  8.702777247367E+00
  8.754993910852E+00  8.807523874317E+00  8.860369017563E+00  8.913531231668E+00
  8.967012419058E+00  9.020814493572E+00  9.074939380534E+00  9.129389016817E+00
  9.184165350918E+00  9.239270343023E+00  9.294705965082E+00  9.350474200872E+00
  9.406577046077E+00  9.463016508354E+00  9.519794607404E+00  9.576913375048E+00
  9.634374855299E+00  9.692181104430E+00  9.750334191057E+00  9.808836196203E+00
  9.867689213380E+00  9.926895348661E+00  9.986456720753E+00  1.004637546108E+01
  1.010665371384E+01  1.016729363613E+01  1.022829739794E+01  1.028966718233E+01
  1.035140518543E+01  1.041351361654E+01  1.047599469824E+01  1.053885066643E+01
  1.060208377042E+01  1.066569627305E+01  1.072969045069E+01  1.079406859339E+01
  1.085883300495E+01  1.092398600298E+01  1.098952991900E+01  1.105546709851E+01
  1.112179990110E+01  1.118853070051E+01  1.125566188471E+01  1.132319585602E+01
  1.139113503116E+01  1.145948184134E+01  1.152823873239E+01  1.159740816479E+01
  1.166699261378E+01  1.173699456946E+01  1.180741653687E+01  1.187826103610E+01
  1.194953060231E+01  1.202122778593E+01  1.209335515264E+01  1.216591528356E+01
  1.223891077526E+01  1.231234423991E+01  1.238621830535E+01  1.246053561518E+01
  1.253529882887E+01  1.261051062185E+01  1.268617368558E+01  1.276229072769E+01
  1.283886447206E+01  1.291589765889E+01  1.299339304484E+01  1.307135340311E+01
  1.314978152353E+01  1.322868021267E+01  1.330805229395E+01  1.338790060771E+01
  1.346822801136E+01  1.354903737943E+01  1.363033160370E+01  1.371211359332E+01
  1.379438627488E+01  1.387715259253E+01  1.396041550809E+01  1.404417800114E+01
  1.412844306914E+01  1.421321372756E+01  1.429849300992E+01  1.438428396798E+01
  1.447058967179E+01  1.455741320982E+01  1.464475768908E+01  1.473262623522E+01
  1.482102199263E+01  1.490994812458E+01  1.499940781333E+01  1.508940426021E+01
  1.517994068577E+01  1.527102032989E+01  1.536264645187E+01  1.545482233058E+01
  1.554755126456E+01  1.564083657215E+01  1.573468159158E+01  1.582908968113E+01
  1.592406421922E+01  1.601960860453E+01  1.611572625616E+01  1.621242061370E+01
  1.630969513738E+01  1.640755330820E+01  1.650599862805E+01  1.660503461982E+01
  1.670466482754E+01  1.680489281650E+01  1.690572217340E+01  1.700715650644E+01
  1.710919944548E+01  1.721185464216E+01  1.731512577001E+01  1.741901652463E+01
  1.752353062378E+01  1.762867180752E+01  1.773444383836E+01  1.784085050139E+01
  1.794789560440E+01  1.805558297803E+01  1.816391647590E+01  1.827289997475E+01
  1.838253737460E+01  1.849283259885E+01  1.860378959444E+01  1.871541233201E+01
  1.882770480600E+01  1.894067103484E+01  1.905431506105E+01  1.916864095141E+01
  1.928365279712E+01  1.939935471390E+01  1.951575084219E+01  1.963284534724E+01
  1.975064241932E+01  1.986914627384E+01  1.998836115148E+01  2.010829131839E+01
  2.022894106630E+01  2.035031471270E+01  2.047241660098E+01  2.059525110058E+01
  2.071882260718E+01  2.084313554283E+01  2.096819435608E+01  2.109400352222E+01
  2.122056754335E+01  2.134789094861E+01  2.147597829431E+01  2.160483416407E+01
  2.173446316906E+01  2.186486994807E+01  2.199605916776E+01  2.212803552277E+01
  2.226080373590E+01  2.239436855832E+01  2.252873476967E+01  2.266390717829E+01
  2.279989062136E+01  2.293668996508E+01  2.307431010487E+01  2.321275596550E+01
  2.335203250130E+01  2.349214469630E+01  2.363309756448E+01  2.377489614987E+01
  2.391754552677E+01  2.406105079993E+01  2.420541710473E+01  2.435064960736E+01
  2.449675350500E+01  2.464373402603E+01  2.479159643019E+01  2.494034600877E+01
  2.508998808482E+01  2.524052801333E+01  2.539197118141E+01  2.554432300850E+01
  2.569758894655E+01  2.585177448023E+01  2.600688512711E+01  2.616292643787E+01
  2.631990399650E+01  2.647782342048E+01  2.663669036100E+01  2.679651050317E+01
  2.695728956619E+01  2.711903330358E+01  2.728174750341E+01  2.744543798843E+01
  2.761011061636E+01  2.777577128005E+01  2.794242590773E+01  2.811008046318E+01
  2.827874094596E+01  2.844841339164E+01  2.861910387199E+01  2.879081849522E+01
  2.896356340619E+01  2.913734478663E+01  2.931216885535E+01  2.948804186848E+01
  2.966497011969E+01  2.984295994041E+01  3.002201770005E+01  3.020214980625E+01
  3.038336270509E+01  3.056566288132E+01  3.074905685861E+01  3.093355119976E+01
  3.111915250696E+01  3.130586742200E+01  3.149370262653E+01  3.168266484229E+01
  3.187276083134E+01  3.206399739633E+01  3.225638138071E+01  3.244991966899E+01
  3.264461918701E+01  3.284048690213E+01  3.303752982354E+01  3.323575500248E+01
  3.343516953250E+01  3.363578054969E+01  3.383759523299E+01  3.404062080439E+01
  3.424486452922E+01  3.445033371639E+01  3.465703571869E+01  3.486497793300E+01
  3.507416780060E+01  3.528461280740E+01  3.549632048425E+01  3.570929840715E+01
  3.592355419760E+01  3.613909552278E+01  3.635593009592E+01  3.657406567649E+01
  3.679351007055E+01  3.701427113098E+01  3.723635675776E+01  3.745977489831E+01
  3.768453354770E+01  3.791064074898E+01  3.813810459348E+01  3.836693322104E+01
  3.859713482036E+01  3.882871762929E+01  3.906168993506E+01  3.929606007467E+01
  3.953183643512E+01  3.976902745373E+01  4.000764161845E+01  4.024768746817E+01
  4.048917359297E+01  4.073210863453E+01  4.097650128634E+01  4.122236029406E+01
  4.146969445582E+01  4.171851262256E+01  4.196882369829E+01  4.222063664048E+01
  4.247396046032E+01  4.272880422309E+01  4.298517704842E+01  4.324308811072E+01
  4.350254663938E+01  4.376356191922E+01  4.402614329073E+01  4.429030015048E+01
  4.455604195138E+01
</grid-data>
</grid>
<valence-charge total-charge="7" is-unscreening-charge="yes"
 rescaled-to-z-pseudo="no">
<radfunc>
<data npts="797">
  9.972070653245E-03  9.984237834880E-03  1.002082658256E-02  1.008210543796E-02
  1.016758687474E-02  1.028035665027E-02  1.041919327742E-02  1.058299756494E-02
  1.077753983768E-02  1.099674808864E-02  1.124501965926E-02  1.151626483529E-02
  1.182342743981E-02  1.216573997620E-02  1.254090625846E-02  1.294491641290E-02
  1.337193592083E-02  1.381429309756E-02  1.431559296063E-02  1.482391605630E-02
  1.539343781195E-02  1.595729546146E-02  1.658175133948E-02  1.727369121868E-02
  1.794055359802E-02  1.867077123254E-02  1.947075536645E-02  2.034762245197E-02
  2.116638474312E-02  2.205291737696E-02  2.301323662919E-02  2.405393769391E-02
  2.518225374035E-02  2.619514799909E-02  2.727938355868E-02  2.844036492593E-02
  2.968393471294E-02  3.101640984841E-02  3.244462047718E-02  3.397595165599E-02
  3.528060767187E-02  3.666074248228E-02  3.812102144249E-02  3.966640856126E-02
  4.130218452392E-02  4.303396547833E-02  4.486772255684E-02  4.680980209554E-02
  4.886694649765E-02  5.104631567216E-02  5.335550896056E-02  5.580258744429E-02
  5.773350519904E-02  5.975057093034E-02  6.185774158308E-02  6.405914519519E-02
  6.635908614743E-02  6.876205030625E-02  7.127271002206E-02  7.389592894239E-02
  7.663676659525E-02  7.950048269480E-02  8.249254111769E-02  8.561861349470E-02
  8.888458235907E-02  9.229654378938E-02  9.586080948192E-02  9.958390818451E-02
  1.034725864216E-01  1.075338084387E-01  1.117747552926E-01  1.162028230141E-01
  1.208256197703E-01  1.256509619541E-01  1.306868691339E-01  1.341651707796E-01
  1.377431863680E-01  1.414234338299E-01  1.452084661472E-01  1.491008699807E-01
  1.531032641757E-01  1.572182981454E-01  1.614486501286E-01  1.657970253254E-01
  1.702661539084E-01  1.748587889126E-01  1.795777040057E-01  1.844256911417E-01
  1.894055581015E-01  1.945201259266E-01  1.997722262499E-01  2.051646985316E-01
  2.107003872076E-01  2.163821387592E-01  2.222127987140E-01  2.281952085888E-01
  2.343322027856E-01  2.406266054546E-01  2.470812273354E-01  2.536988625927E-01
  2.604822856594E-01  2.674342481018E-01  2.745574755228E-01  2.818546645169E-01
  2.893284796904E-01  2.969815507623E-01  3.048164697545E-01  3.128357882843E-01
  3.210420149648E-01  3.294376129194E-01  3.380249974096E-01  3.468065335742E-01
  3.557845342712E-01  3.649612580056E-01  3.743389069227E-01  3.839196248361E-01
  3.937054952500E-01  4.036985393255E-01  4.139007137284E-01  4.243139082830E-01
  4.349399433410E-01  4.457805667593E-01  4.568374503628E-01  4.681121857487E-01
  4.796062792697E-01  4.913211460109E-01  5.032581025525E-01  5.154183582871E-01
  5.278030050353E-01  5.404130046769E-01  5.532491744922E-01  5.663121698783E-01
  5.729288827874E-01  5.796024640848E-01  5.863329405908E-01  5.931203245852E-01
  5.999646128563E-01  6.068657856816E-01  6.138238057352E-01  6.208386169201E-01
  6.279101431212E-01  6.350382868752E-01  6.422229279535E-01  6.494639218559E-01
  6.567610982101E-01  6.641142590740E-01  6.715231771373E-01  6.789875938192E-01
  6.865072172590E-01  6.940817201947E-01  7.017107377298E-01  7.093938649820E-01
  7.171306546135E-01  7.249206142387E-01  7.327632037088E-01  7.406578322694E-01
  7.486038555912E-01  7.566005726715E-01  7.646472226062E-01  7.727429812306E-01
  7.808869576317E-01  7.890781905291E-01  7.973156445287E-01  8.055982062487E-01
  8.139246803223E-01  8.222937852778E-01  8.307041493024E-01  8.391543058933E-01
  8.476426894008E-01  8.561676304719E-01  8.647273513997E-01  8.733199613891E-01
  8.819434517467E-01  8.905956910064E-01  8.992744200025E-01  9.079772469034E-01
  9.167016422201E-01  9.254449338050E-01  9.342043018591E-01  9.429767739641E-01
  9.517592201618E-01  9.605483480995E-01  9.693406982661E-01  9.781326393425E-01
  9.869203636916E-01  9.956998830165E-01  1.004467024214E+00  1.013217425453E+00
  1.021946532517E+00  1.030649595427E+00  1.039321665400E+00  1.047957592161E+00
  1.056552021659E+00  1.065099394209E+00  1.073593943120E+00  1.082029693828E+00
  1.090400463584E+00  1.098699861742E+00  1.106921290676E+00  1.115057947381E+00
  1.123102825783E+00  1.131048719819E+00  1.138888227305E+00  1.146613754648E+00
  1.154217522432E+00  1.161691571916E+00  1.169027772480E+00  1.176217830042E+00
  1.183253296496E+00  1.190125580169E+00  1.196825957350E+00  1.203345584883E+00
  1.209675513860E+00  1.215806704409E+00  1.221730041595E+00  1.227436352419E+00
  1.232916423925E+00  1.238161022386E+00  1.243160913561E+00  1.247906883993E+00
  1.252389763307E+00  1.256600447479E+00  1.260529923011E+00  1.264169291968E+00
  1.267509797794E+00  1.270542851847E+00  1.273260060557E+00  1.275653253115E+00
  1.277714509599E+00  1.279436189413E+00  1.280810959932E+00  1.281831825212E+00
  1.282492154648E+00  1.282785711417E+00  1.282706680568E+00  1.282249696605E+00
  1.281409870394E+00  1.280182815236E+00  1.278564671930E+00  1.276552132662E+00
  1.274142463544E+00  1.271333525625E+00  1.268123794214E+00  1.264512376334E+00
  1.260499026153E+00  1.256084158225E+00  1.251268858390E+00  1.246054892195E+00
  1.240444710703E+00  1.234441453557E+00  1.228048949209E+00  1.221271712213E+00
  1.214114937508E+00  1.206584491631E+00  1.198686900828E+00  1.190429336044E+00
  1.181819594794E+00  1.172866079941E+00  1.163577775449E+00  1.153964219154E+00
  1.144035472686E+00  1.133802088651E+00  1.123275075219E+00  1.112465858306E+00
  1.101386241530E+00  1.090048364192E+00  1.078464657485E+00  1.066647799245E+00
  1.054610667487E+00  1.042366293060E+00  1.029927811720E+00  1.017308415947E+00
  1.004521306825E+00  9.915796464488E-01  9.784965112352E-01  9.652848463975E-01
  9.519574219783E-01  9.385267908015E-01  9.250052486933E-01  9.114048077245E-01
  8.977372152806E-01  8.840139978207E-01  8.702464404669E-01  8.564455416446E-01
  8.426219899469E-01  8.287861356151E-01  8.149479656783E-01  8.011170818805E-01
  7.873026816813E-01  7.735135425712E-01  7.597580098958E-01  7.460440024507E-01
  7.323790805745E-01  7.187705493223E-01  7.052254752958E-01  6.917506674923E-01
  6.783526859477E-01  6.650378404592E-01  6.518121912505E-01  6.386815497955E-01
  6.256514799450E-01  6.127272993441E-01  5.999140811305E-01  5.872166558992E-01
  5.746396139244E-01  5.621873076243E-01  5.498638542581E-01  5.376731388428E-01
  5.256188172776E-01  5.137043196645E-01  5.019328538122E-01  4.903074089135E-01
  4.788307593799E-01  4.675054688294E-01  4.563338942090E-01  4.453181900439E-01
  4.344603128024E-01  4.237620253642E-01  4.132249015830E-01  4.028503309322E-01
  3.926395232235E-01  3.825935133882E-01  3.727131663130E-01  3.629991817187E-01
  3.534520990745E-01  3.440723025384E-01  3.348600259148E-01  3.258153576222E-01
  3.169382456620E-01  3.082285025813E-01  2.996858104229E-01  2.913097256544E-01
  2.830996840715E-01  2.750550056670E-01  2.671748994623E-01  2.594584682929E-01
  2.519047135452E-01  2.445125398374E-01  2.372807596419E-01  2.302080978429E-01
  2.232931962268E-01  2.165346179009E-01  2.099308516367E-01  2.034803161353E-01
  1.971813642119E-01  1.910322868967E-01  1.850313174500E-01  1.791766352887E-01
  1.734663698245E-01  1.678986042097E-01  1.624713789913E-01  1.571826956708E-01
  1.520305201703E-01  1.470127862031E-01  1.421273985491E-01  1.373722362336E-01
  1.327451556116E-01  1.282439933546E-01  1.238665693429E-01  1.196106894626E-01
  1.154741483067E-01  1.114547317831E-01  1.075502196287E-01  1.037583878306E-01
  1.000770109554E-01  9.650386438824E-02  9.303672648099E-02  8.967338061274E-02
  8.641161716212E-02  8.324923539341E-02  8.018404525760E-02  7.721386910960E-02
  7.433654334304E-02  7.154991994387E-02  6.885186796424E-02  6.624027491808E-02
  6.371304809973E-02  6.126811582706E-02  5.890342861058E-02  5.661696025000E-02
  5.440670885968E-02  5.227069782443E-02  5.020697668733E-02  4.821362197089E-02
  4.628873793316E-02  4.443045726040E-02  4.263694169774E-02  4.090638261952E-02
  3.923700154081E-02  3.762705057173E-02  3.607481281628E-02  3.457860271711E-02
  3.313676634812E-02  3.174768165631E-02  3.040975865473E-02  2.912143956818E-02
  2.788119893318E-02  2.668754365424E-02  2.553901301782E-02  2.443417866587E-02
  2.337164453068E-02  2.235004673262E-02  2.136805344270E-02  2.042436471144E-02
  1.951771226597E-02  1.864685927689E-02  1.781060009669E-02  1.700775997134E-02
  1.623719472675E-02  1.549779043176E-02  1.478846303908E-02  1.410815800610E-02
  1.345584989682E-02  1.283054196655E-02  1.223126573094E-02  1.165708052061E-02
  1.110707302301E-02  1.058035681273E-02  1.007607187167E-02  9.593384100297E-03
  9.131484821369E-03  8.689590277165E-03  8.266941121484E-03  7.862801907484E-03
  7.476460572428E-03  7.107227920339E-03  6.754437103542E-03  6.417443103981E-03
  6.095622215204E-03  5.788371525807E-03  5.495108405117E-03  5.215269991824E-03
  4.948312686241E-03  4.693711646813E-03  4.450960291449E-03  4.219569804221E-03
  3.999068647909E-03  3.789002082847E-03  3.588931692475E-03  3.398434915959E-03
  3.217104588209E-03  3.044548487589E-03  2.880388891558E-03  2.724262140487E-03
  2.575818209804E-03  2.434720290666E-03  2.300644379237E-03  2.173278874709E-03
  2.052324186118E-03  1.937492348001E-03  1.828506644933E-03  1.725101244925E-03
  1.627020841688E-03  1.534020305711E-03  1.445864344107E-03  1.362327169161E-03
  1.283192175498E-03  1.208251625774E-03  1.137306344786E-03  1.070165421896E-03
  1.006645921636E-03  9.465726023636E-04  8.897776428402E-04  8.361003765885E-04
  7.853870338785E-04  7.374904911992E-04  6.922700280636E-04  6.495910909937E-04
  6.093250645340E-04  5.713490491367E-04  5.355456457683E-04  5.018027470819E-04
  4.700133350057E-04  4.400752845950E-04  4.118911740014E-04  3.853681004103E-04
  3.604175018045E-04  3.369549844105E-04  3.149001556886E-04  2.941764627296E-04
  2.747110359247E-04  2.564345377762E-04  2.392810167206E-04  2.231877658385E-04
  2.080951863268E-04  1.939466556132E-04  1.806883999940E-04  1.682693716803E-04
  1.566411301379E-04  1.457577276102E-04  1.355755987157E-04  1.260534540124E-04
  1.171521774247E-04  1.088347274297E-04  1.010660419029E-04  9.381294652268E-05
  8.704406663763E-05  8.072974249991E-05  7.484194777166E-05  6.935421121118E-05
  6.424154144836E-05  5.948035475981E-05  5.504840575584E-05  5.092472089259E-05
  4.708953472438E-05  4.352422881241E-05  4.021127320766E-05  3.713417042683E-05
  3.427740184190E-05  3.162637640509E-05  2.916738163224E-05  2.688753676940E-05
  2.477474806838E-05  2.281766609862E-05  2.100564502430E-05  1.932870377654E-05
  1.777748905254E-05  1.634324007465E-05  1.501775504366E-05  1.379335922254E-05
  1.266287458780E-05  1.161959098753E-05  1.065723874643E-05  9.769962659718E-06
  8.952297319349E-06  8.199143717373E-06  7.505747072872E-06  6.867675830346E-06
  6.280801778963E-06  5.741281243574E-06  5.245537299866E-06  4.790242967548E-06
  4.372305336901E-06  3.988850585506E-06  3.637209843403E-06  3.314905866362E-06
  3.019640478371E-06  2.749282745827E-06  2.501857847300E-06  2.275536604087E-06
  2.068625638099E-06  1.879558124932E-06  1.706885111247E-06  1.549267366833E-06
  1.405467742956E-06  1.274344009777E-06  1.154842146804E-06  1.045990061461E-06
  9.468917119712E-07  8.567216118190E-07  7.747196940938E-07  7.001865150402E-07
  6.324787771013E-07  5.710051527005E-07  5.152223909161E-07  4.646316900878E-07
  4.187753202454E-07  3.772334800715E-07  3.396213739011E-07  3.055864950166E-07
  2.748061022328E-07  2.469848774603E-07  2.218527526127E-07  1.991628948620E-07
  1.786898398649E-07  1.602277631686E-07  1.435888805681E-07  1.286019687236E-07
  1.151109978550E-07  1.029738688201E-07  9.206124734542E-08  8.225548861747E-08
  7.344964586249E-08  6.554655693882E-08  5.845800334196E-08  5.210393637957E-08
  4.641176561080E-08  4.131570496346E-08  3.675617224416E-08  3.267923804101E-08