<?xml version="1.0" encoding="UTF-8" ?>
<psml version="1.1" energy_unit="hartree" length_unit="bohr"
 uuid="ce0fd530-c73d-11ed-6eb4-3df8bfb792ef"
 xmlns="http://esl.cecam.org/PSML/ns/1.1">
<provenance creator="ONCVPSP-4.0.1+psml-4.0.1-76 (scalar-relativistic)"
 date="2023-03-20">
<annotation action="semilocal-pseudopotential-generation"
 action-cont="projectors-generation" />
<input-file name="oncvpsp-input">
<![CDATA[# atsym z nc nv iexc psfile
Rn 86 12 3 4 both
# n l f
1 0 2.0
2 0 2.0
2 1 6.0
3 0 2.0
3 1 6.0
3 2 10.0
4 0 2.0
4 1 6.0
4 2 10.0
5 0 2.0
5 1 6.0
4 3 14.0
5 2 10.0
6 0 2.0
6 1 6.0
# lmax
3
# l rc ep ncon nbas qcut
0 2.2 0.0 4 7 3.6
1 2.0 0.0 4 7 4.6
2 1.8 0.0 4 8 8.4
3 2.0 0.05 4 7 4.0
# lloc lpopt rc5 dvloc0
4 5 1.8 0.0
# l nproj debl
0 3 2.8
1 2 4.5
2 2 1.8
3 2 2.0
# icmod fcfact rcfact
3 6.0 1.34
# epsh1 epsh2 depsh
-12.0 12.0 0.02
# rlmax drl
6.0 0.01
0
]]>
</input-file>
</provenance>
<pseudo-atom-spec atomic-label="Rn" atomic-number="86" z-pseudo="18"
 flavor="Hamann&apos;s oncvpsp" relativity="scalar" spin-dft="no"
 core-corrections="yes">
<annotation pseudo-energy="-109.960278143" cutoff_hint_low="45"
 cutoff_hint_normal="50" cutoff_hint_high="54" />
<exchange-correlation>
<annotation oncvpsp-xc-code="4" oncvpsp-xc-type="GGA -- Perdew-Burke-Ernzerhof" />
<libxc-info number-of-functionals="2">
<functional name="Perdew, Burke &amp; Ernzerhof (GGA)" type="exchange" id="101" />
<functional name="Perdew, Burke &amp; Ernzerhof (GGA)" type="correlation"
 id="130" />
</libxc-info>
</exchange-correlation>
<valence-configuration total-valence-charge="18">
<shell n="5" l="d" occupation="10" />
<shell n="6" l="s" occupation="2" />
<shell n="6" l="p" occupation="6" />
</valence-configuration>
</pseudo-atom-spec>
<grid npts="797">
<annotation type="sampled from oncvpsp log grid"
 recipe="r(i:1..N) = r1*exp(a*(i-1)) + r=0; resampled"
 recipe-cont="r1: scale; a: step" scale="0.581395348837E-05"
 step="0.598207167755E-02" delta="0.500000000000E-02" rmax="44.5779877821" />
<grid-data>
  0.000000000000E+00  5.014062771055E-03  1.003588162514E-02  1.507364278152E-02
  2.008728741396E-02  2.521416328498E-02  3.035162608279E-02  3.545924317562E-02
  4.068956233840E-02  4.586090629785E-02  5.107475427876E-02  5.620487385536E-02
  6.148139149487E-02  6.685215605726E-02  7.225853756503E-02  7.763631908411E-02
  8.291683649795E-02  8.802834389729E-02  9.345495627408E-02  9.862435253569E-02
  1.040796903757E-01  1.091816962772E-01  1.145338034628E-01  1.201482719443E-01
  1.252862452501E-01  1.306439368195E-01  1.362307425977E-01  1.420564603343E-01
  1.472478198470E-01  1.526288941642E-01  1.582066162880E-01  1.639881725827E-01
  1.699810120334E-01  1.751420038205E-01  1.804596944995E-01  1.859388417882E-01
  1.915843478591E-01  1.974012637253E-01  2.033947937594E-01  2.095703003503E-01
  2.146454360839E-01  2.198434756959E-01  2.251673955331E-01  2.306202440197E-01
  2.362051434037E-01  2.419252915437E-01  2.477839637407E-01  2.537845146132E-01
  2.599303800178E-01  2.662250790170E-01  2.726722158940E-01  2.792754822162E-01
  2.843326629717E-01  2.894814202487E-01  2.947234123345E-01  3.000603275453E-01
  3.054938847695E-01  3.110258340216E-01  3.166579570057E-01  3.223920676892E-01
  3.282300128876E-01  3.341736728587E-01  3.402249619083E-01  3.463858290072E-01
  3.526582584182E-01  3.590442703358E-01  3.655459215366E-01  3.721653060417E-01
  3.789045557912E-01  3.857658413308E-01  3.927513725111E-01  3.998633991988E-01
  4.071042120020E-01  4.144761430074E-01  4.219815665319E-01  4.270605366666E-01
  4.322006372860E-01  4.374026041563E-01  4.426671819000E-01  4.479951241013E-01
  4.533871934150E-01  4.588441616749E-01  4.643668100049E-01  4.699559289301E-01
  4.756123184907E-01  4.813367883560E-01  4.871301579407E-01  4.929932565217E-01
  4.989269233572E-01  5.049320078067E-01  5.110093694526E-01  5.171598782234E-01
  5.233844145177E-01  5.296838693308E-01  5.360591443821E-01  5.425111522439E-01
  5.490408164723E-01  5.556490717393E-01  5.623368639668E-01  5.691051504615E-01
  5.759549000524E-01  5.828870932295E-01  5.899027222836E-01  5.970027914490E-01
  6.041883170469E-01  6.114603276308E-01  6.188198641342E-01  6.262679800189E-01
  6.338057414264E-01  6.414342273302E-01  6.491545296904E-01  6.569677536097E-01
  6.648750174922E-01  6.728774532027E-01  6.809762062295E-01  6.891724358477E-01
  6.974673152855E-01  7.058620318923E-01  7.143577873081E-01  7.229557976362E-01
  7.316572936165E-01  7.404635208025E-01  7.493757397389E-01  7.583952261424E-01
  7.675232710842E-01  7.767611811750E-01  7.861102787516E-01  7.955719020667E-01
  8.051474054799E-01  8.148381596523E-01  8.246455517419E-01  8.345709856026E-01
  8.395784115163E-01  8.446158819854E-01  8.496835772773E-01  8.547816787409E-01
  8.599103688134E-01  8.650698310263E-01  8.702602500124E-01  8.754818115125E-01
  8.807347023816E-01  8.860191105959E-01  8.913352252594E-01  8.966832366110E-01
  9.020633360307E-01  9.074757160468E-01  9.129205703431E-01  9.183980937652E-01
  9.239084823278E-01  9.294519332217E-01  9.350286448211E-01  9.406388166900E-01
  9.462826495901E-01  9.519603454877E-01  9.576721075606E-01  9.634181402060E-01
  9.691986490472E-01  9.750138409415E-01  9.808639239871E-01  9.867491075311E-01
  9.926696021762E-01  9.986256197893E-01  1.004617373508E+00  1.010645077749E+00
  1.016708948216E+00  1.022809201905E+00  1.028946057116E+00  1.035119733459E+00
  1.041330451860E+00  1.047578434571E+00  1.053863905178E+00  1.060187088609E+00
  1.066548211141E+00  1.072947500408E+00  1.079385185410E+00  1.085861496523E+00
  1.092376665502E+00  1.098930925495E+00  1.105524511048E+00  1.112157658114E+00
  1.118830604063E+00  1.125543587687E+00  1.132296849213E+00  1.139090630309E+00
  1.145925174091E+00  1.152800725135E+00  1.159717529486E+00  1.166675834663E+00
  1.173675889671E+00  1.180717945009E+00  1.187802252679E+00  1.194929066195E+00
  1.202098640592E+00  1.209311232436E+00  1.216567099830E+00  1.223866502429E+00
  1.231209701444E+00  1.238596959652E+00  1.246028541410E+00  1.253504712659E+00
  1.261025740935E+00  1.268591895380E+00  1.276203446753E+00  1.283860667433E+00
  1.291563831438E+00  1.299313214426E+00  1.307109093713E+00  1.314951748275E+00
  1.322841458765E+00  1.330778507518E+00  1.338763178563E+00  1.346795757634E+00
  1.354876532180E+00  1.363005791373E+00  1.371183826121E+00  1.379410929078E+00
  1.387687394652E+00  1.396013519020E+00  1.404389600134E+00  1.412815937735E+00
  1.421292833362E+00  1.429820590362E+00  1.438399513904E+00  1.447029910987E+00
  1.455712090453E+00  1.464446362996E+00  1.473233041174E+00  1.482072439421E+00
  1.490964874058E+00  1.499910663302E+00  1.508910127282E+00  1.517963588045E+00
  1.527071369574E+00  1.536233797791E+00  1.545451200578E+00  1.554723907781E+00
  1.564052251228E+00  1.573436564735E+00  1.582877184124E+00  1.592374447229E+00
  1.601928693912E+00  1.611540266075E+00  1.621209507672E+00  1.630936764718E+00
  1.640722385306E+00  1.650566719618E+00  1.660470119936E+00  1.670432940655E+00
  1.680455538299E+00  1.690538271529E+00  1.700681501158E+00  1.710885590165E+00
  1.721150903706E+00  1.731477809128E+00  1.741866675983E+00  1.752317876039E+00
  1.762831783295E+00  1.773408773995E+00  1.784049226639E+00  1.794753521999E+00
  1.805522043131E+00  1.816355175390E+00  1.827253306442E+00  1.838216826281E+00
  1.849246127238E+00  1.860341604002E+00  1.871503653626E+00  1.882732675548E+00
  1.894029071601E+00  1.905393246030E+00  1.916825605507E+00  1.928326559140E+00
  1.939896518494E+00  1.951535897605E+00  1.963245112991E+00  1.975024583669E+00
  1.986874731171E+00  1.998795979558E+00  2.010788755435E+00  2.022853487968E+00
  2.034990608896E+00  2.047200552549E+00  2.059483755865E+00  2.071840658400E+00
  2.084271702350E+00  2.096777332564E+00  2.109357996560E+00  2.122014144539E+00
  2.134746229406E+00  2.147554706783E+00  2.160440035023E+00  2.173402675233E+00
  2.186443091285E+00  2.199561749833E+00  2.212759120332E+00  2.226035675054E+00
  2.239391889104E+00  2.252828240438E+00  2.266345209881E+00  2.279943281140E+00
  2.293622940827E+00  2.307384678472E+00  2.321228986543E+00  2.335156360462E+00
  2.349167298625E+00  2.363262302417E+00  2.377441876231E+00  2.391706527489E+00
  2.406056766654E+00  2.420493107254E+00  2.435016065897E+00  2.449626162292E+00
  2.464323919266E+00  2.479109862782E+00  2.493984521959E+00  2.508948429090E+00
  2.524002119665E+00  2.539146132383E+00  2.554381009177E+00  2.569707295232E+00
  2.585125539004E+00  2.600636292238E+00  2.616240109991E+00  2.631937550651E+00
  2.647729175955E+00  2.663615551011E+00  2.679597244317E+00  2.695674827783E+00
  2.711848876749E+00  2.728119970010E+00  2.744488689830E+00  2.760955621969E+00
  2.777521355701E+00  2.794186483835E+00  2.810951602738E+00  2.827817312354E+00
  2.844784216228E+00  2.861852921526E+00  2.879024039055E+00  2.896298183289E+00
  2.913675972389E+00  2.931158028223E+00  2.948744976393E+00  2.966437446251E+00
  2.984236070928E+00  3.002141487354E+00  3.020154336278E+00  3.038275262296E+00
  3.056504913870E+00  3.074843943353E+00  3.093293007013E+00  3.111852765055E+00
  3.130523881645E+00  3.149307024935E+00  3.168202867085E+00  3.187212084287E+00
  3.206335356793E+00  3.225573368934E+00  3.244926809147E+00  3.264396370002E+00
  3.283982748222E+00  3.303686644712E+00  3.323508764580E+00  3.343449817167E+00
  3.363510516070E+00  3.383691579167E+00  3.403993728642E+00  3.424417691014E+00
  3.444964197160E+00  3.465633982343E+00  3.486427786237E+00  3.507346352954E+00
  3.528390431072E+00  3.549560773658E+00  3.570858138300E+00  3.592283287130E+00
  3.613836986853E+00  3.635520008774E+00  3.657333128827E+00  3.679277127600E+00
  3.701352790365E+00  3.723560907107E+00  3.745902272550E+00  3.768377686185E+00
  3.790987952302E+00  3.813733880016E+00  3.836616283296E+00  3.859635980996E+00
  3.882793796882E+00  3.906090559663E+00  3.929527103021E+00  3.953104265640E+00
  3.976822891233E+00  4.000683828581E+00  4.024687931552E+00  4.048836059142E+00
  4.073129075496E+00  4.097567849949E+00  4.122153257049E+00  4.146886176591E+00
  4.171767493651E+00  4.196798098613E+00  4.221978887205E+00  4.247310760528E+00
  4.272794625091E+00  4.298431392841E+00  4.324221981198E+00  4.350167313086E+00
  4.376268316964E+00  4.402525926866E+00  4.428941082427E+00  4.455514728922E+00
  4.482247817295E+00  4.509141304199E+00  4.536196152024E+00  4.563413328936E+00
  4.590793808910E+00  4.618338571763E+00  4.646048603194E+00  4.673924894813E+00
  4.701968444182E+00  4.730180254847E+00  4.758561336376E+00  4.787112704395E+00
  4.815835380621E+00  4.844730392905E+00  4.873798775262E+00  4.903041567914E+00
  4.932459817321E+00  4.962054576225E+00  4.991826903682E+00  5.021777865104E+00
  5.051908532295E+00  5.082219983489E+00  5.112713303390E+00  5.143389583210E+00
  5.174249920709E+00  5.205295420234E+00  5.236527192755E+00  5.267946355912E+00
  5.299554034047E+00  5.331351358251E+00  5.363339466401E+00  5.395519503199E+00
  5.427892620218E+00  5.460459975940E+00  5.493222735795E+00  5.526182072210E+00
  5.559339164643E+00  5.592695199631E+00  5.626251370829E+00  5.660008879054E+00
  5.693968932328E+00  5.728132745922E+00  5.762501542398E+00  5.797076551652E+00
  5.831859010962E+00  5.866850165028E+00  5.902051266018E+00  5.937463573614E+00
  5.973088355056E+00  6.008926885186E+00  6.044980446497E+00  6.081250329176E+00
  6.117737831151E+00  6.154444258138E+00  6.191370923687E+00  6.228519149229E+00
  6.265890264125E+00  6.303485605709E+00  6.341306519344E+00  6.379354358460E+00
  6.417630484610E+00  6.456136267518E+00  6.494873085123E+00  6.533842323634E+00
  6.573045377576E+00  6.612483649841E+00  6.652158551740E+00  6.692071503051E+00
  6.732223932069E+00  6.772617275661E+00  6.813252979315E+00  6.854132497191E+00
  6.895257292174E+00  6.936628835928E+00  6.978248608943E+00  7.020118100597E+00
  7.062238809200E+00  7.104612242056E+00  7.147239915508E+00  7.190123355001E+00
  7.233264095131E+00  7.276663679702E+00  7.320323661780E+00  7.364245603751E+00
  7.408431077373E+00  7.452881663837E+00  7.497598953820E+00  7.542584547543E+00
  7.587840054829E+00  7.633367095157E+00  7.679167297728E+00  7.725242301515E+00
  7.771593755324E+00  7.818223317856E+00  7.865132657763E+00  7.912323453710E+00
  7.959797394432E+00  8.007556178798E+00  8.055601515871E+00  8.103935124966E+00
  8.152558735716E+00  8.201474088131E+00  8.250682932659E+00  8.300187030255E+00
  8.349988152437E+00  8.400088081351E+00  8.450488609840E+00  8.501191541499E+00
  8.552198690748E+00  8.603511882892E+00  8.655132954189E+00  8.707063751915E+00
  8.759306134426E+00  8.811861971233E+00  8.864733143060E+00  8.917921541918E+00
  8.971429071170E+00  9.025257645597E+00  9.079409191470E+00  9.133885646619E+00
  9.188688960499E+00  9.243821094262E+00  9.299284020828E+00  9.355079724952E+00
  9.411210203302E+00  9.467677464522E+00  9.524483529309E+00  9.581630430485E+00
  9.639120213068E+00  9.696954934346E+00  9.755136663952E+00  9.813667483936E+00
  9.872549488840E+00  9.931784785773E+00  9.991375494487E+00  1.005132374745E+01
  1.011163168994E+01  1.017230148008E+01  1.023333528896E+01  1.029473530069E+01
  1.035650371250E+01  1.041864273477E+01  1.048115459118E+01  1.054404151873E+01
  1.060730576784E+01  1.067094960245E+01  1.073497530006E+01  1.079938515186E+01
  1.086418146277E+01  1.092936655155E+01  1.099494275086E+01  1.106091240736E+01
  1.112727788181E+01  1.119404154910E+01  1.126120579839E+01  1.132877303318E+01
  1.139674567138E+01  1.146512614541E+01  1.153391690228E+01  1.160312040370E+01
  1.167273912612E+01  1.174277556088E+01  1.181323221424E+01  1.188411160753E+01
  1.195541627717E+01  1.202714877484E+01  1.209931166748E+01  1.217190753749E+01
  1.224493898271E+01  1.231840861661E+01  1.239231906831E+01  1.246667298272E+01
  1.254147302062E+01  1.261672185874E+01  1.269242218989E+01  1.276857672303E+01
  1.284518818337E+01  1.292225931247E+01  1.299979286835E+01  1.307779162556E+01
  1.315625837531E+01  1.323519592556E+01  1.331460710111E+01  1.339449474372E+01
  1.347486171218E+01  1.355571088246E+01  1.363704514775E+01  1.371886741864E+01
  1.380118062315E+01  1.388398770689E+01  1.396729163313E+01  1.405109538293E+01
  1.413540195523E+01  1.422021436696E+01  1.430553565316E+01  1.439136886708E+01
  1.447771708028E+01  1.456458338276E+01  1.465197088306E+01  1.473988270836E+01
  1.482832200461E+01  1.491729193664E+01  1.500679568825E+01  1.509683646238E+01
  1.518741748116E+01  1.527854198605E+01  1.537021323796E+01  1.546243451739E+01
  1.555520912449E+01  1.564854037924E+01  1.574243162152E+01  1.583688621125E+01
  1.593190752851E+01  1.602749897368E+01  1.612366396753E+01  1.622040595133E+01
  1.631772838704E+01  1.641563475736E+01  1.651412856591E+01  1.661321333730E+01
  1.671289261732E+01  1.681316997303E+01  1.691404899287E+01  1.701553328682E+01
  1.711762648655E+01  1.722033224546E+01  1.732365423894E+01  1.742759616437E+01
  1.753216174136E+01  1.763735471181E+01  1.774317884008E+01  1.784963791312E+01
  1.795673574060E+01  1.806447615504E+01  1.817286301197E+01  1.828190019004E+01
  1.839159159118E+01  1.850194114073E+01  1.861295278757E+01  1.872463050430E+01
  1.883697828732E+01  1.895000015705E+01  1.906370015799E+01  1.917808235894E+01
  1.929315085309E+01  1.940890975821E+01  1.952536321676E+01  1.964251539606E+01
  1.976037048844E+01  1.987893271137E+01  1.999820630764E+01  2.011819554548E+01
  2.023890471875E+01  2.036033814707E+01  2.048250017595E+01  2.060539517700E+01
  2.072902754807E+01  2.085340171335E+01  2.097852212364E+01  2.110439325638E+01
  2.123101961592E+01  2.135840573361E+01  2.148655616801E+01  2.161547550502E+01
  2.174516835805E+01  2.187563936820E+01  2.200689320441E+01  2.213893456363E+01
  2.227176817102E+01  2.240539878004E+01  2.253983117272E+01  2.267507015976E+01
  2.281112058072E+01  2.294798730420E+01  2.308567522803E+01  2.322418927940E+01
  2.336353441507E+01  2.350371562156E+01  2.364473791529E+01  2.378660634278E+01
  2.392932598084E+01  2.407290193672E+01  2.421733934835E+01  2.436264338444E+01
  2.450881924474E+01  2.465587216021E+01  2.480380739317E+01  2.495263023753E+01
  2.510234601896E+01  2.525296009507E+01  2.540447785564E+01  2.555690472277E+01
  2.571024615111E+01  2.586450762802E+01  2.601969467379E+01  2.617581284183E+01
  2.633286771888E+01  2.649086492519E+01  2.664981011474E+01  2.680970897543E+01
  2.697056722928E+01  2.713239063266E+01  2.729518497646E+01  2.745895608631E+01
  2.762370982283E+01  2.778945208177E+01  2.795618879426E+01  2.812392592703E+01
  2.829266948259E+01  2.846242549948E+01  2.863320005248E+01  2.880499925280E+01
  2.897782924831E+01  2.915169622380E+01  2.932660640114E+01  2.950256603955E+01
  2.967958143579E+01  2.985765892440E+01  3.003680487795E+01  3.021702570722E+01
  3.039832786146E+01  3.058071782863E+01  3.076420213560E+01  3.094878734842E+01
  3.113448007251E+01  3.132128695294E+01  3.150921467466E+01  3.169826996271E+01
  3.188845958248E+01  3.207979033998E+01  3.227226908202E+01  3.246590269651E+01
  3.266069811269E+01  3.285666230136E+01  3.305380227517E+01  3.325212508882E+01
  3.345163783936E+01  3.365234766639E+01  3.385426175239E+01  3.405738732291E+01
  3.426173164684E+01  3.446730203672E+01  3.467410584894E+01  3.488215048404E+01
  3.509144338694E+01  3.530199204726E+01  3.551380399955E+01  3.572688682354E+01
  3.594124814449E+01  3.615689563335E+01  3.637383700715E+01  3.659208002920E+01
  3.681163250937E+01  3.703250230443E+01  3.725469731825E+01  3.747822550216E+01
  3.770309485518E+01  3.792931342431E+01  3.815688930485E+01  3.838583064068E+01
  3.861614562453E+01  3.884784249827E+01  3.908092955326E+01  3.931541513058E+01
  3.955130762137E+01  3.978861546709E+01  4.002734715990E+01  4.026751124286E+01
  4.050911631031E+01  4.075217100818E+01  4.099668403422E+01  4.124266413843E+01
  4.149012012326E+01  4.173906084400E+01  4.198949520906E+01  4.224143218032E+01
  4.249488077340E+01  4.274985005804E+01  4.300634915839E+01  4.326438725334E+01
  4.352397357686E+01  4.378511741832E+01  4.404782812283E+01  4.431211509157E+01
  4.457798778212E+01
</grid-data>
</grid>
<valence-charge total-charge="18" is-unscreening-charge="yes"
 rescaled-to-z-pseudo="no">
<radfunc>
<data npts="797">
  9.029820407834E-02  9.031326588531E-02  9.036116391190E-02  9.045012073746E-02
  9.059242064637E-02  9.081242633910E-02  9.113337947338E-02  9.158254681390E-02
  9.221414978531E-02  9.305205857227E-02  9.416047032100E-02  9.556218691225E-02
  9.738611787851E-02  9.970957178540E-02  1.026011861977E-01  1.061101799983E-01
  1.102542622211E-01  1.150076801966E-01  1.209465994748E-01  1.275518602341E-01
  1.356299922663E-01  1.443126237340E-01  1.546989905959E-01  1.671228356291E-01
  1.799757407102E-01  1.950047343463E-01  2.125735521052E-01  2.331043385237E-01
  2.534284259984E-01  2.766392440579E-01  3.031355401707E-01  3.333677518757E-01
  3.678438498827E-01  4.002262388661E-01  4.363196116048E-01  4.765288244681E-01
  5.212985327204E-01  5.711162239877E-01  6.265152998666E-01  6.880781600598E-01
  7.421908843219E-01  8.010034182040E-01  8.648891650860E-01  9.342457329953E-01
  1.009495640671E+00  1.091086888605E+00  1.179493360745E+00  1.275215017832E+00
  1.378777838267E+00  1.490733457005E+00  1.611658447291E+00  1.742153184138E+00
  1.846678112592E+00  1.957205943845E+00  2.074012518424E+00  2.197378600892E+00
  2.327588971889E+00  2.464931371580E+00  2.609695281892E+00  2.762170534628E+00
  2.922645732349E+00  3.091406468863E+00  3.268733336314E+00  3.454899706152E+00
  3.650169271882E+00  3.854793342272E+00  4.069007874923E+00  4.293030241559E+00
  4.527055718379E+00  4.771253697127E+00  5.025763615461E+00  5.290690608596E+00
  5.566100888223E+00  5.852016859357E+00  6.148411991129E+00  6.351792990844E+00
  6.559758218117E+00  6.772256618981E+00  6.989223812861E+00  7.210581323276E+00
  7.436235803109E+00  7.666078258058E+00  7.899983272271E+00  8.137808240570E+00
  8.379392612119E+00  8.624557150797E+00  8.873103217999E+00  9.124812084043E+00
  9.379444274789E+00  9.636738960552E+00  9.896413394809E+00  1.015816241065E+01
  1.042165798331E+01  1.068654886751E+01  1.095246031872E+01  1.121899390771E+01
  1.148572743803E+01  1.175221497634E+01  1.201798700555E+01  1.228255071075E+01
  1.254539040815E+01  1.280596812673E+01  1.306372435230E+01  1.331807894341E+01
  1.356843222774E+01  1.381416628714E+01  1.405464643892E+01  1.428922291953E+01
  1.451723277610E+01  1.473800196987E+01  1.495084769387E+01  1.515508090583E+01
  1.535000907527E+01  1.553493914159E+01  1.570918067794E+01  1.587204925303E+01
  1.602286998065E+01  1.616098124361E+01  1.628573857635E+01  1.639651868713E+01
  1.649272359769E+01  1.657378487540E+01  1.663916792941E+01  1.668837633942E+01
  1.672095618267E+01  1.673650032174E+01  1.673465261307E+01  1.671511199378E+01
  1.667763640196E+01  1.662204648411E+01  1.654822904195E+01  1.645614016990E+01
  1.640324986657E+01  1.634580803467E+01  1.628382984580E+01  1.621733524827E+01
  1.614634901568E+01  1.607090078746E+01  1.599102510084E+01  1.590676141405E+01
  1.581815412047E+01  1.572525255333E+01  1.562811098084E+01  1.552678859140E+01
  1.542134946871E+01  1.531186255654E+01  1.519840161310E+01  1.508104515470E+01
  1.495987638869E+01  1.483498313559E+01  1.470645774032E+01  1.457439697245E+01
  1.443890191563E+01  1.430007784611E+01  1.415803410048E+01  1.401288393270E+01
  1.386474436072E+01  1.371373600265E+01  1.355998290291E+01  1.340361234860E+01
  1.324475467625E+01  1.308354306947E+01  1.292011334787E+01  1.275460374759E+01
  1.258715469390E+01  1.241790856656E+01  1.224700945826E+01  1.207460292680E+01
  1.190083574166E+01  1.172585562560E+01  1.154981099183E+01  1.137285067771E+01
  1.119512367539E+01  1.101677886047E+01  1.083796471919E+01  1.065882907510E+01
  1.047951881598E+01  1.030017962183E+01  1.012095569471E+01  9.941989491426E+00
  9.763421459704E+00  9.585389778856E+00  9.408030105680E+00  9.231475326476E+00
  9.055855315955E+00  8.881296703877E+00  8.707922650174E+00  8.535852629324E+00
  8.365202224710E+00  8.196082933649E+00  8.028601983769E+00  7.862862161350E+00
  7.698961652213E+00  7.536993895692E+00  7.377047452190E+00  7.219205884744E+00
  7.063547654991E+00  6.910146033863E+00  6.759069027290E+00  6.610379317111E+00
  6.464134217351E+00  6.320385645958E+00  6.179180112021E+00  6.040558718436E+00
  5.904557179915E+00  5.771205856185E+00  5.640529800155E+00  5.512548820749E+00
  5.387277560082E+00  5.264725584566E+00  5.144897489488E+00  5.027793016560E+00
  4.913407183861E+00  4.801730427589E+00  4.692748754940E+00  4.586443907454E+00
  4.482793534072E+00  4.381771373152E+00  4.283347442659E+00  4.187488237702E+00
  4.094156934584E+00  4.003313600519E+00  3.914915408145E+00  3.828916853964E+00
  3.745269979825E+00  3.663924596589E+00  3.584828509086E+00  3.507927741520E+00
  3.433166762449E+00  3.360488708524E+00  3.289835606148E+00  3.221148590269E+00
  3.154368119527E+00  3.089434187010E+00  3.026286525882E+00  2.964864809219E+00
  2.905108843359E+00  2.846958754170E+00  2.790355165621E+00  2.735239370109E+00
  2.681553490024E+00  2.629240630061E+00  2.578245019845E+00  2.528512146464E+00
  2.479988876545E+00  2.432623567569E+00  2.386366168127E+00  2.341168306924E+00
  2.296983370313E+00  2.253766568269E+00  2.211474988689E+00  2.170067640020E+00
  2.129505482183E+00  2.089751445589E+00  2.050770438360E+00  2.012529343252E+00
  1.974997004747E+00  1.938144204750E+00  1.901943628108E+00  1.866369818267E+00
  1.831399123655E+00  1.797009607031E+00  1.763180836953E+00  1.729893622455E+00
  1.697129997907E+00  1.664873197391E+00  1.633107628931E+00  1.601818845684E+00
  1.570993514316E+00  1.540619380812E+00  1.510685234009E+00  1.481180867218E+00
  1.452097038251E+00  1.423425427654E+00  1.395158595371E+00  1.367289936840E+00
  1.339813638528E+00  1.312724633248E+00  1.286018555553E+00  1.259691671836E+00
  1.233740704099E+00  1.208162596972E+00  1.182954447080E+00  1.158113500059E+00
  1.133637099710E+00  1.109522658363E+00  1.085767626738E+00  1.062369466650E+00
  1.039325626373E+00  1.016633518873E+00  9.942905030211E-01  9.722938675858E-01
  9.506408181166E-01  9.293284666867E-01  9.083538244730E-01  8.877138118316E-01
  8.674053309954E-01  8.474253692800E-01  8.277710077891E-01  8.084393931436E-01
  7.894277381042E-01  7.707333119452E-01  7.523534329374E-01  7.342854610957E-01
  7.165267913508E-01  6.990748471330E-01  6.819270743636E-01  6.650809358443E-01
  6.485339060375E-01  6.322834662254E-01  6.163271000420E-01  6.006622893635E-01
  5.852865105504E-01  5.701972310278E-01  5.553919061944E-01  5.408679766482E-01
  5.266228657177E-01  5.126539772864E-01  4.989586939000E-01  4.855343751431E-01
  4.723783562754E-01  4.594879471133E-01  4.468604311471E-01  4.344930648815E-01
  4.223830773868E-01  4.105276700510E-01  3.989240165199E-01  3.875692628154E-01
  3.764605276190E-01  3.655949027127E-01  3.549694535633E-01  3.445812200422E-01
  3.344272172701E-01  3.245044365757E-01  3.148098465605E-01  3.053403942590E-01
  2.960930063862E-01  2.870645906634E-01  2.782520372144E-01  2.696522200232E-01
  2.612619984465E-01  2.530782187731E-01  2.450977158227E-01  2.373173145791E-01
  2.297338318490E-01  2.223440779419E-01  2.151448583657E-01  2.081329755305E-01
  2.013052304588E-01  1.946584244931E-01  1.881893610006E-01  1.818948470675E-01
  1.757716951812E-01  1.698167248953E-01  1.640267644750E-01  1.583986525191E-01
  1.529292395565E-01  1.476153896133E-01  1.424539817497E-01  1.374419115640E-01
  1.325760926600E-01  1.278534580794E-01  1.232709616946E-01  1.188255795616E-01
  1.145143112329E-01  1.103341810262E-01  1.062822392520E-01  1.023555633959E-01
  9.855125925631E-02  9.486646203683E-02  9.129833739314E-02  8.784408243295E-02
  8.450092666963E-02  8.126613292883E-02  7.813699820794E-02  7.511085448833E-02
  7.218506950017E-02  6.935704744002E-02  6.662422964096E-02  6.398409519564E-02
  6.143416153213E-02  5.897198494297E-02  5.659516106748E-02  5.430132532783E-02
  5.208815331894E-02  4.995336115287E-02  4.789470575795E-02  4.590998513320E-02
  4.399703855865E-02  4.215374676203E-02  4.037803204260E-02  3.866785835274E-02
  3.702123133816E-02  3.543619833747E-02  3.391084834197E-02  3.244331191677E-02
  3.103176108392E-02  2.967440916894E-02  2.836951061153E-02  2.711536074180E-02
  2.591029552316E-02  2.475269126305E-02  2.364096429281E-02  2.257357061804E-02
  2.154900554073E-02  2.056580325451E-02  1.962253641453E-02  1.871781568323E-02
  1.785028925351E-02  1.701864235081E-02  1.622159671530E-02  1.545791006593E-02
  1.472637554757E-02  1.402582116274E-02  1.335510918933E-02  1.271313558579E-02
  1.209882938508E-02  1.151115207876E-02  1.094909699263E-02  1.041168865507E-02
  9.897982159572E-03  9.407062522446E-03  8.938044037063E-03  8.490069625734E-03
  8.062310190315E-03  7.653963962620E-03  7.264255855655E-03  6.892436816623E-03
  6.537783182635E-03  6.199596039991E-03  5.877200587833E-03  5.569945506962E-03
  5.277202334509E-03  4.998364845149E-03  4.732848439456E-03  4.480089539978E-03
  4.239544995541E-03  4.010691494264E-03  3.793024985696E-03  3.586060112461E-03
  3.389329651746E-03  3.202383966919E-03  3.024790469539E-03  2.856133091951E-03
  2.696011770657E-03  2.544041940597E-03  2.399854040442E-03  2.263093028965E-03
  2.133417912551E-03  2.010501283837E-03  1.894028871493E-03  1.783699101089E-03
  1.679222667000E-03  1.580322115270E-03  1.486731437333E-03  1.398195674491E-03
  1.314470532996E-03  1.235322009627E-03  1.160526027587E-03  1.089868082561E-03
  1.023142898778E-03  9.601540948856E-04  9.007138594603E-04  8.446426359706E-04
  7.917688169955E-04  7.419284475124E-04  6.949649370578E-04  6.507287805685E-04
  6.090772877088E-04  5.698743204922E-04  5.329900390057E-04  4.983006550478E-04
  4.656881934938E-04  4.350402612039E-04  4.062498232936E-04  3.792149865873E-04
  3.538387900820E-04  3.300290022482E-04  3.076979250011E-04  2.867622041774E-04
  2.671426463561E-04  2.487640418662E-04  2.315549938272E-04  2.154477530694E-04
  2.003780587881E-04  1.862849847852E-04  1.731107911558E-04  1.608007812811E-04
  1.493031639900E-04  1.385689207554E-04  1.285516777923E-04  1.192075829294E-04
  1.104951871254E-04  1.023753305046E-04  9.481103278914E-05  8.776738800575E-05
  8.121146334687E-05  7.511220206918E-05  6.944033031261E-05  6.416826772590E-05
  5.927004178551E-05  5.472120569723E-05  5.049875977071E-05  4.658107615938E-05
  4.294782685941E-05  3.957991486347E-05  3.645940836628E-05  3.356947792090E-05
  3.089433644641E-05  2.841918198920E-05  2.613014314191E-05  2.401422702602E-05
  2.205926974547E-05  2.025388922104E-05  1.858744031665E-05  1.704997217084E-05
  1.563218764856E-05  1.432540483032E-05  1.312152045769E-05  1.201297525609E-05
  1.099272105791E-05  1.005418965083E-05  9.191263278353E-06  8.398246721554E-06
  7.669840892981E-06  7.001117875810E-06  6.387497343260E-06  5.824724295341E-06
  5.308848051994E-06  4.836202443705E-06  4.403387142595E-06  4.007250079020E-06
  3.644870890592E-06  3.313545352491E-06  3.010770739801E-06  2.734232074473E-06
  2.481789211357E-06  2.251464719529E-06  2.041432516906E-06  1.850007217874E-06
  1.675634155333E-06  1.516880040223E-06  1.372424223191E-06  1.241050524639E-06
  1.121639600906E-06  1.013161815819E-06  9.146705883055E-07  8.252961881162E-07
  7.442399530913E-07  6.707689026893E-07  6.042107237612E-07  5.439491057694E-07
  4.894194038242E-07  4.401046090331E-07  3.955316067503E-07  3.552677043480E-07
  3.189174111376E-07  2.861194540223E-07  2.565440133823E-07  2.298901645734E-07
  2.058835112544E-07  1.842739975639E-07  1.648338869288E-07  1.473558960146E-07
  1.316514730218E-07  1.175492101898E-07  1.048933809966E-07  9.354259313749E-08
  8.336854892807E-08  7.425490531082E-08  6.609622615125E-08  5.879701998585E-08
  5.227085683653E-08  4.643955813215E-08  4.123245417987E-08  3.658570400775E-08