Rn    ONCVPSP-4.0.1  r_core=   2.21276   2.01079   1.80552   2.01079
86.0000     18.0000      220131    zatom,zion,pspd
8      11   3     4   600     0    pspcod,pspxc,lmax,lloc,mmax,r2well
5.99000000  6.00000000  0.00000000    rchrg fchrg qchrg
3     2     2     2     0    nproj
1     1           extension_switch
0                         1.2563056306118E+01  3.9063417454540E+00  8.5644161287988E-01
1  0.0000000000000E+00 -1.6330475860471E-10  1.9893180852604E-10 -1.5919694729138E-10
2  1.0000000000000E-02  3.5813734041050E-02 -6.6539489448551E-03  4.5640720662531E-03
3  2.0000000000000E-02  7.1543103758880E-02 -1.3246311679889E-02  9.1269581802564E-03
4  3.0000000000000E-02  1.0710437624108E-01 -1.9716100706757E-02  1.3687685956850E-02
5  4.0000000000000E-02  1.4241507611426E-01 -2.6003520148737E-02  1.8245706541545E-02
6  5.0000000000000E-02  1.7739460114859E-01 -3.2050547108811E-02  2.2801097407674E-02
7  6.0000000000000E-02  2.1196482218041E-01 -3.7801495826138E-02  2.7354754505421E-02
8  7.0000000000000E-02  2.4605066231827E-01 -4.3203559131645E-02  3.1908570401414E-02
9  8.0000000000000E-02  2.7958065056057E-01 -4.8207321902422E-02  3.6465595206769E-02
10  9.0000000000000E-02  3.1248744515520E-01 -5.2767241459908E-02  4.1030177287283E-02
11  1.0000000000000E-01  3.4470832226992E-01 -5.6842090147195E-02  4.5608080980672E-02
12  1.1000000000000E-01  3.7618562581630E-01 -6.0395355653156E-02  5.0206578809550E-02
13  1.2000000000000E-01  4.0686717457750E-01 -6.3395595023510E-02  5.4834515973311E-02
14  1.3000000000000E-01  4.3670662312815E-01 -6.5816738707906E-02  5.9502345224064E-02
15  1.4000000000000E-01  4.6566377340117E-01 -6.7638341434348E-02  6.4222130578163E-02
16  1.5000000000000E-01  4.9370483414883E-01 -6.8845777174642E-02  6.9007518682800E-02
17  1.6000000000000E-01  5.2080262596044E-01 -6.9430375962601E-02  7.3873677042394E-02
18  1.7000000000000E-01  5.4693672993356E-01 -6.9389500846889E-02  7.8837198709088E-02
19  1.8000000000000E-01  5.7209357854705E-01 -6.8726563798097E-02  8.3915973450960E-02
20  1.9000000000000E-01  5.9626648774820E-01 -6.7450979940695E-02  8.9129025827288E-02
21  2.0000000000000E-01  6.1945562973985E-01 -6.5578060040182E-02  9.4496321017572E-02
22  2.1000000000000E-01  6.4166794643294E-01 -6.3128841739664E-02  1.0003853966655E-01
23  2.2000000000000E-01  6.6291700401176E-01 -6.0129860603230E-02  1.0577682341627E-01
24  2.3000000000000E-01  6.8322278953926E-01 -5.6612862581159E-02  1.1173249319458E-01
25  2.4000000000000E-01  7.0261145100526E-01 -5.2614460060443E-02  1.1792674271383E-01
26  2.5000000000000E-01  7.2111498268682E-01 -4.8175734196568E-02  1.2438030999786E-01
27  2.6000000000000E-01  7.3877085814367E-01 -4.3341786736942E-02  1.3111313009873E-01
28  2.7000000000000E-01  7.5562161361031E-01 -3.8161245036712E-02  1.3814397248091E-01
29  2.8000000000000E-01  7.7171438496441E-01 -3.2685724429549E-02  1.4549006683655E-01
30  2.9000000000000E-01  7.8710040184767E-01 -2.6969252547266E-02  1.5316672135025E-01
31  3.0000000000000E-01  8.0183444288490E-01 -2.1067660575521E-02  1.6118693764765E-01
32  3.1000000000000E-01  8.1597425628882E-01 -1.5037946789163E-02  1.6956102684196E-01
33  3.2000000000000E-01  8.2957995044691E-01 -8.9376180216483E-03  1.7829623122846E-01
34  3.3000000000000E-01  8.4271335936291E-01 -2.8240149911835E-03  1.8739635627230E-01
35  3.4000000000000E-01  8.5543738806341E-01  3.2463723772085E-03  1.9686141758199E-01
36  3.5000000000000E-01  8.6781534328058E-01  9.2185933257277E-03  2.0668730756454E-01
37  3.6000000000000E-01  8.7991025488181E-01  1.5039921911681E-02  2.1686548641218E-01
38  3.7000000000000E-01  8.9178419363452E-01  2.0660533445343E-02  2.2738270197858E-01
39  3.8000000000000E-01  9.0349759096920E-01  2.6034165228729E-02  2.3822074296027E-01
40  3.9000000000000E-01  9.1510856643449E-01  3.1118755154889E-02  2.4935622961198E-01
41  4.0000000000000E-01  9.2667226852411E-01  3.5877051833555E-02  2.6076044598839E-01
42  4.1000000000000E-01  9.3824023449677E-01  4.0277190069693E-02  2.7239921742414E-01
43  4.2000000000000E-01  9.4985977470715E-01  4.4293225737221E-02  2.8423283663968E-01
44  4.3000000000000E-01  9.6157338681844E-01  4.7905624359448E-02  2.9621604149408E-01
45  4.4000000000000E-01  9.7341820507657E-01  5.1101698028923E-02  3.0829804700046E-01
46  4.5000000000000E-01  9.8542548959258E-01  5.3875985671213E-02  3.2042263377691E-01
47  4.6000000000000E-01  9.9762016030700E-01  5.6230572074113E-02  3.3252829463286E-01
48  4.7000000000000E-01  1.0100203799966E+00  5.8175341567862E-02  3.4454844048469E-01
49  4.8000000000000E-01  1.0226371903352E+00  5.9728162745199E-02  3.5641166626619E-01
50  4.9000000000000E-01  1.0354742046361E+00  6.0915001150919E-02  3.6804207694874E-01
51  5.0000000000000E-01  1.0485273604887E+00  6.1769957445991E-02  3.7935967321874E-01
52  5.1000000000000E-01  1.0617847350566E+00  6.2335229153879E-02  3.9028079578177E-01
53  5.2000000000000E-01  1.0752264253379E+00  6.2660994724424E-02  4.0071862667828E-01
54  5.3000000000000E-01  1.0888244951917E+00  6.2805219298508E-02  4.1058374540781E-01
55  5.4000000000000E-01  1.1025429904302E+00  6.2833382216919E-02  4.1978473707776E-01
56  5.5000000000000E-01  1.1163380227473E+00  6.2818126988102E-02  4.2822884921782E-01
57  5.6000000000000E-01  1.1301579227202E+00  6.2838835102393E-02  4.3582269334382E-01
58  5.7000000000000E-01  1.1439434615796E+00  6.2981125752837E-02  4.4247298681477E-01
59  5.8000000000000E-01  1.1576281408985E+00  6.3336284186255E-02  4.4808733001422E-01
60  5.9000000000000E-01  1.1711385488077E+00  6.4000622058781E-02  4.5257501340473E-01
61  6.0000000000000E-01  1.1843947808080E+00  6.5074773804037E-02  4.5584784855432E-01
62  6.1000000000000E-01  1.1973109227268E+00  6.6662933627445E-02  4.5782101683025E-01
63  6.2000000000000E-01  1.2097955928483E+00  6.8872038320833E-02  4.5841392909019E-01
64  6.3000000000000E-01  1.2217525397612E+00  7.1810901633335E-02  4.5755108939046E-01
65  6.4000000000000E-01  1.2330812919892E+00  7.5589306440871E-02  4.5516295546776E-01
66  6.5000000000000E-01  1.2436778550318E+00  8.0317061412870E-02  4.5118678855228E-01
67  6.6000000000000E-01  1.2534354510241E+00  8.6103029289970E-02  4.4556748492075E-01
68  6.7000000000000E-01  1.2622452958453E+00  9.3054134240941E-02  4.3825838152209E-01
69  6.8000000000000E-01  1.2699974081625E+00  1.0127435607156E-01  4.2922202798797E-01
70  6.9000000000000E-01  1.2765814445911E+00  1.1086371929990E-01  4.1843091739137E-01
71  7.0000000000000E-01  1.2818875548914E+00  1.2191728529200E-01  4.0586816823333E-01
72  7.1000000000000E-01  1.2858072509057E+00  1.3452415576818E-01  3.9152815032188E-01
73  7.2000000000000E-01  1.2882342827683E+00  1.4876649603910E-01  3.7541704745956E-01
74  7.3000000000000E-01  1.2890655158031E+00  1.6471858631178E-01  3.5755335017597E-01
75  7.4000000000000E-01  1.2882018014470E+00  1.8244590932022E-01  3.3796827212544E-01
76  7.5000000000000E-01  1.2855488355241E+00  2.0200428237721E-01  3.1670608422232E-01
77  7.6000000000000E-01  1.2810179972199E+00  2.2343904172365E-01  2.9382436109392E-01
78  7.7000000000000E-01  1.2745271621928E+00  2.4678428675866E-01  2.6939413500287E-01
79  7.8000000000000E-01  1.2660014833918E+00  2.7206219137819E-01  2.4349995301565E-01
80  7.9000000000000E-01  1.2553741333349E+00  2.9928238923016E-01  2.1623983386864E-01
81  8.0000000000000E-01  1.2425870018382E+00  3.2844143921365E-01  1.8772512170551E-01
82  8.1000000000000E-01  1.2275913434661E+00  3.5952237701027E-01  1.5808023462398E-01
83  8.2000000000000E-01  1.2103483693045E+00  3.9249435784477E-01  1.2744230676745E-01
84  8.3000000000000E-01  1.1908297780315E+00  4.2731239502859E-01  9.5960723526801E-02
85  8.4000000000000E-01  1.1690182216718E+00  4.6391719815367E-01  6.3796550268275E-02
86  8.5000000000000E-01  1.1449077018786E+00  5.0223511407476E-01  3.1121855873465E-02
87  8.6000000000000E-01  1.1185038930705E+00  5.4217817305841E-01 -1.8810667471776E-03
88  8.7000000000000E-01  1.0898243892733E+00  5.8364424168372E-01 -3.5020580123202E-02
89  8.8000000000000E-01  1.0588988720624E+00  6.2651728326696E-01 -6.8096677756930E-02
90  8.9000000000000E-01  1.0257691975731E+00  6.7066772575280E-01 -1.0090205093983E-01
91  9.0000000000000E-01  9.9048940113580E-01  7.1595293617357E-01 -1.3322324122741E-01
92  9.1000000000000E-01  9.5312561869856E-01  7.6221779993484E-01 -1.6484187213233E-01
93  9.2000000000000E-01  9.1375592481288E-01  8.0929540234815E-01 -1.9553595281602E-01
94  9.3000000000000E-01  8.7247008758079E-01  8.5700780900045E-01 -2.2508124581794E-01
95  9.4000000000000E-01  8.2936924158014E-01  9.0516694074007E-01 -2.5325269017288E-01
96  9.5000000000000E-01  7.8456548040188E-01  9.5357553827206E-01 -2.7982587063236E-01
97  9.6000000000000E-01  7.3818137104048E-01  1.0020282105978E+00 -3.0457852313209E-01
98  9.7000000000000E-01  6.9034939297026E-01  1.0503125608168E+00 -3.2729206614476E-01
99  9.8000000000000E-01  6.4121130531573E-01  1.0982103821324E+00 -3.4775314712470E-01
100  9.9000000000000E-01  5.9091744607328E-01  1.1454989162763E+00 -3.6575519289841E-01
101  1.0000000000000E+00  5.3962596786528E-01  1.1919521659970E+00 -3.8109995258471E-01
102  1.0100000000000E+00  4.8750201519801E-01  1.2373422527453E+00 -3.9359902144293E-01
103  1.0200000000000E+00  4.3471684864892E-01  1.2814408102450E+00 -4.0307533395498E-01
104  1.0300000000000E+00  3.8144692182412E-01  1.3240204042585E+00 -4.0936461444277E-01
105  1.0400000000000E+00  3.2787291729843E-01  1.3648559685538E+00 -4.1231677361324E-01
106  1.0500000000000E+00  2.7417874807551E-01  1.4037262468498E+00 -4.1179723960890E-01
107  1.0600000000000E+00  2.2055053138247E-01  1.4404152303670E+00 -4.0768821242012E-01
108  1.0700000000000E+00  1.6717554183770E-01  1.4747135805422E+00 -3.9988983089012E-01
109  1.0800000000000E+00  1.1424115120378E-01  1.5064200264723E+00 -3.8832124200657E-01
110  1.0900000000000E+00  6.1933762053681E-02  1.5353427267514E+00 -3.7292156273077E-01
111  1.1000000000000E+00  1.0437742740016E-02  1.5613005855365E+00 -3.5365072525814E-01
112  1.1100000000000E+00 -4.0065628935985E-02  1.5841245129343E+00 -3.3049019732442E-01
113  1.1200000000000E+00 -8.9399206013250E-02  1.6036586201374E+00 -3.0344356998281E-01
114  1.1300000000000E+00 -1.3739098937832E-01  1.6197613401501E+00 -2.7253700614480E-01
115  1.1400000000000E+00 -1.8387511441908E-01  1.6323064654343E+00 -2.3781954412994E-01
116  1.1500000000000E+00 -2.2869280046526E-01  1.6411840943598E+00 -1.9936325146516E-01
117  1.1600000000000E+00 -2.7169325642827E-01  1.6463014789749E+00 -1.5726322523732E-01
118  1.1700000000000E+00 -3.1273453637078E-01  1.6475837672958E+00 -1.1163743640094E-01
119  1.1800000000000E+00 -3.5168433910454E-01  1.6449746340643E+00 -6.2626416583828E-02
120  1.1900000000000E+00 -3.8842074632634E-01  1.6384367947136E+00 -1.0392787098258E-02
121  1.2000000000000E+00 -4.2283289425702E-01  1.6279523981315E+00  4.4879368945893E-02
122  1.2100000000000E+00 -4.5482157423868E-01  1.6135232946851E+00  1.0298528933729E-01
123  1.2200000000000E+00 -4.8429975827292E-01  1.5951711768891E+00  1.6370046698026E-01
124  1.2300000000000E+00 -5.1119304603726E-01  1.5729375910344E+00  2.2678173116108E-01
125  1.2400000000000E+00 -5.3544003049802E-01  1.5468838190479E+00  2.9196847022457E-01
126  1.2500000000000E+00 -5.5699257984188E-01  1.5170906308235E+00  3.5898398888010E-01
127  1.2600000000000E+00 -5.7581603406227E-01  1.4836579082248E+00  4.2753699226376E-01
128  1.2700000000000E+00 -5.9188931516969E-01  1.4467041429228E+00  4.9732318782365E-01
129  1.2800000000000E+00 -6.0520495062706E-01  1.4063658111801E+00  5.6802699510562E-01
130  1.2900000000000E+00 -6.1576901024695E-01  1.3627966296138E+00  6.3932335258698E-01
131  1.3000000000000E+00 -6.2360095741997E-01  1.3161666968690E+00  7.1087960984730E-01
132  1.3100000000000E+00 -6.2873341616452E-01  1.2666615269912E+00  7.8235749259523E-01
133  1.3200000000000E+00 -6.3121185609728E-01  1.2144809811074E+00  8.5341512738069E-01
134  1.3300000000000E+00 -6.3109419801031E-01  1.1598381047827E+00  9.2370911223614E-01
135  1.3400000000000E+00 -6.2845034330912E-01  1.1029578791403E+00  9.9289661899597E-01
136  1.3500000000000E+00 -6.2336163110142E-01  1.0440758944714E+00  1.0606375126622E+00
137  1.3600000000000E+00 -6.1592022723117E-01  9.8343695564696E-01  1.1265964729093E+00
138  1.3700000000000E+00 -6.0622845002282E-01  9.2129362914909E-01  1.1904451026586E+00
139  1.3800000000000E+00 -5.9439803792998E-01  8.5790474197361E-01  1.2518640086070E+00
140  1.3900000000000E+00 -5.8054936466867E-01  7.9353384300564E-01  1.3105448386653E+00
141  1.4000000000000E+00 -5.6481060775704E-01  7.2844763774033E-01  1.3661922614463E+00
142  1.4100000000000E+00 -5.4731687667641E-01  6.6291440740604E-01  1.4185258732489E+00
143  1.4200000000000E+00 -5.2820930711126E-01  5.9720242364479E-01  1.4672820183995E+00
144  1.4300000000000E+00 -5.0763412791764E-01  5.3157836991771E-01  1.5122155093441E+00
145  1.4400000000000E+00 -4.8574170760677E-01  4.6630578072668E-01  1.5531012335217E+00
146  1.4500000000000E+00 -4.6268558721766E-01  4.0164350958454E-01  1.5897356347945E+00
147  1.4600000000000E+00 -4.3862150648097E-01  3.3784423641727E-01  1.6219380580492E+00
148  1.4700000000000E+00 -4.1370643015798E-01  2.7515302475859E-01  1.6495519465203E+00
149  1.4800000000000E+00 -3.8809758136008E-01  2.1380593868520E-01  1.6724458824074E+00
150  1.4900000000000E+00 -3.6195148853018E-01  1.5402872896234E-01  1.6905144624523E+00
151  1.5000000000000E+00 -3.3542305258981E-01  9.6035597312959E-02  1.7036790013153E+00
152  1.5100000000000E+00 -3.0866464053096E-01  4.0028047103671E-02  1.7118880568106E+00
153  1.5200000000000E+00 -2.8182521146188E-01 -1.3806171941408E-02  1.7151177723476E+00
154  1.5300000000000E+00 -2.5504948080304E-01 -6.5294018123123E-02  1.7133720332322E+00
155  1.5400000000000E+00 -2.2847712797462E-01 -1.1427800516028E-01  1.7066824348459E+00
156  1.5500000000000E+00 -2.0224205252960E-01 -1.6061693733089E-01  1.6951080620733E+00
157  1.5600000000000E+00 -1.7647168326221E-01 -2.0418652796580E-01  1.6787350807370E+00
158  1.5700000000000E+00 -1.5128634437139E-01 -2.4487989778761E-01  1.6576761431638E+00
159  1.5800000000000E+00 -1.2679868228195E-01 -2.8260795050035E-01  1.6320696113705E+00
160  1.5900000000000E+00 -1.0311315623112E-01 -3.1729962395583E-01  1.6020786026868E+00
161  1.6000000000000E+00 -8.0325595214660E-02 -3.4890201615234E-01  1.5678898639342E+00
162  1.6100000000000E+00 -5.8522823362986E-02 -3.7738038624552E-01  1.5297124815290E+00
163  1.6200000000000E+00 -3.7782355288413E-02 -4.0271803166217E-01  1.4877764360697E+00
164  1.6300000000000E+00 -1.8172162409849E-02 -4.2491604330553E-01  1.4423310111000E+00
165  1.6400000000000E+00  2.4948926814970E-04 -4.4399294170717E-01  1.3936430667850E+00
166  1.6500000000000E+00  1.7434129968949E-02 -4.5998419781598E-01  1.3419951902070E+00
167  1.6600000000000E+00  3.3343106111645E-02 -4.7294164291328E-01  1.2876837348613E+00
168  1.6700000000000E+00  4.7947530489920E-02 -4.8293277288837E-01  1.2310167627028E+00
169  1.6800000000000E+00  6.1228164200626E-02 -4.9003995281180E-01  1.1723119027666E+00
170  1.6900000000000E+00  7.3175232312578E-02 -4.9435952837715E-01  1.1118941409361E+00
171  1.7000000000000E+00  8.3788175700166E-02 -4.9600085136782E-01  1.0500935558793E+00
172  1.7100000000000E+00  9.3075341861446E-02 -4.9508522680886E-01  9.8724301648730E-01
173  1.7200000000000E+00  1.0105361791157E-01 -4.9174478991117E-01  9.2367585635449E-01
174  1.7300000000000E+00  1.0774800927218E-01 -4.8612132127917E-01  8.5972354090991E-01
175  1.7400000000000E+00  1.1319116787487E-01 -4.7836500914918E-01  7.9571334276682E-01
176  1.7500000000000E+00  1.1742287395156E-01 -4.6863316763878E-01  7.3196604068181E-01
177  1.7600000000000E+00  1.2048947570219E-01 -4.5708892012751E-01  6.6879365722626E-01
178  1.7700000000000E+00  1.2244329130455E-01 -4.4389985694871E-01  6.0649724986154E-01
179  1.7800000000000E+00  1.2334197782656E-01 -4.2923667643277E-01  5.4536476908357E-01
180  1.7900000000000E+00  1.2324787170543E-01 -4.1327181833582E-01  4.8566899730191E-01
181  1.8000000000000E+00  1.2222730784217E-01 -3.9617810574791E-01  4.2766560882708E-01
182  1.8100000000000E+00  1.2034990928406E-01 -3.7812736338298E-01  3.7159120046326E-01
183  1.8200000000000E+00  1.1768794362689E-01 -3.5928931547570E-01  3.1766250039172E-01
184  1.8300000000000E+00  1.1431579089481E-01 -3.3983086686827E-01  2.6607695134725E-01
185  1.8400000000000E+00  1.1030939432389E-01 -3.1991532104258E-01  2.1701271260743E-01
186  1.8500000000000E+00  1.0574564201712E-01 -2.9970138460623E-01  1.7062763209554E-01
187  1.8600000000000E+00  1.0070176862942E-01 -2.7934225607264E-01  1.2705849177774E-01
188  1.8700000000000E+00  9.5254771536780E-02 -2.5898477211875E-01  8.6420386077091E-02
189  1.8800000000000E+00  8.9480846293705E-02 -2.3876862100792E-01  4.8806261451941E-02
190  1.8900000000000E+00  8.3454844446664E-02 -2.1882562695129E-01  1.4286618840237E-02
191  1.9000000000000E+00  7.7249756365292E-02 -1.9927910822441E-01 -1.7090621380441E-02
192  1.9100000000000E+00  7.0936221460961E-02 -1.8024331126089E-01 -4.5300093040364E-02
193  1.9200000000000E+00  6.4582067813944E-02 -1.6182292219577E-01 -7.0338798910161E-02
194  1.9300000000000E+00  5.8251882870974E-02 -1.4411265657622E-01 -9.2225770329660E-02
195  1.9400000000000E+00  5.2006616524080E-02 -1.2719692724213E-01 -1.1100157673259E-01
196  1.9500000000000E+00  4.5903217528054E-02 -1.1114958966786E-01 -1.2672769124973E-01
197  1.9600000000000E+00  3.9994303839296E-02 -9.6033763306209E-02 -1.3948571985391E-01
198  1.9700000000000E+00  3.4327867147573E-02 -8.1901726887544E-02 -1.4937650236460E-01
199  1.9800000000000E+00  2.8947011491051E-02 -6.8794884881684E-02 -1.5651909489497E-01
200  1.9900000000000E+00  2.3889725555607E-02 -5.6743801807469E-02 -1.6104964403457E-01
201  2.0000000000000E+00  1.9188687938993E-02 -4.5768300482384E-02 -1.6312016397355E-01
202  2.0100000000000E+00  1.4871104368967E-02 -3.5877619781247E-02 -1.6289722853914E-01
203  2.0200000000000E+00  1.0958575600781E-02 -2.7070627020292E-02 -1.6056059071602E-01
204  2.0300000000000E+00  7.4669944877087E-03 -1.9336079701203E-02 -1.5630174269041E-01
205  2.0400000000000E+00  4.4064704951704E-03 -1.2652930982373E-02 -1.5032242993633E-01
206  2.0500000000000E+00  1.7812797321440E-03 -6.9906729451351E-03 -1.4283313318613E-01
207  2.0600000000000E+00 -4.1016023765463E-04 -2.3097128535291E-03 -1.3405153172390E-01
208  2.0700000000000E+00 -2.1752965925601E-03  1.4382273994046E-03 -1.2420096332744E-01
209  2.0800000000000E+00 -3.5274836329041E-03  4.3097498714181E-03 -1.1350892180926E-01
210  2.0900000000000E+00 -4.4856818300506E-03  6.3690525621240E-03 -1.0220537005414E-01
211  2.1000000000000E+00 -5.0750369873683E-03  7.6882371340873E-03 -9.0521862203040E-02
212  2.1100000000000E+00 -5.3315118331718E-03  8.3511466203250E-03 -7.8690895913135E-02
213  2.1200000000000E+00 -5.2994786996701E-03  8.4502060857434E-03 -6.6942538826125E-02
214  2.1300000000000E+00 -5.0144942909885E-03  8.0693501325467E-03 -5.5497546081680E-02
215  2.1400000000000E+00 -4.5179489179856E-03  7.2990540322782E-03 -4.4574114025979E-02
216  2.1500000000000E+00 -3.8586516571575E-03  6.2376284554720E-03 -3.4387486109269E-02
217  2.1600000000000E+00 -3.0918122655897E-03  4.9897874238819E-03 -2.5148186550688E-02
218  2.1700000000000E+00 -2.2790321500138E-03  3.6663495917582E-03 -1.7061037778145E-02
219  2.1800000000000E+00 -1.4889418109667E-03  2.3850551558585E-03 -1.0328479049460E-02
220  2.1900000000000E+00 -7.8964653111871E-04  1.2586211976645E-03 -5.1105736470433E-03
221  2.2000000000000E+00 -2.7364920335191E-04  4.3371589014259E-04 -1.6604532306966E-03
222  2.2100000000000E+00 -2.5698782315290E-05  4.0472980216785E-05 -1.5005499652117E-04
223  2.2200000000000E+00  1.5247004303545E-05 -2.3980836278718E-05  8.2323332502594E-05
224  2.2300000000000E+00 -4.2941797164486E-06  6.7786604893357E-06 -2.4238829117024E-05
225  2.24  0. -0.  0.
226  2.25  0. -0.  0.
227  2.26 -0.  0. -0.
228  2.27  0.  0.  0.
229  2.28  0.  0.  0.
230  2.29  0.  0.  0.
231  2.30  0.  0.  0.
232  2.31  0.  0.  0.
233  2.32  0.  0.  0.
234  2.33  0.  0.  0.
235  2.34  0.  0.  0.
236  2.35  0.  0.  0.
237  2.36  0.  0.  0.
238  2.37  0.  0.  0.
239  2.38  0.  0.  0.
240  2.39  0.  0.  0.
241  2.40  0.  0.  0.
242  2.41  0.  0.  0.
243  2.42  0.  0.  0.
244  2.43  0.  0.  0.
245  2.44  0.  0.  0.
246  2.45  0.  0.  0.
247  2.46  0.  0.  0.
248  2.47  0.  0.  0.
249  2.48  0.  0.  0.
250  2.49  0.  0.  0.
251  2.50  0.  0.  0.
252  2.51  0.  0.  0.
253  2.52  0.  0.  0.
254  2.53  0.  0.  0.
255  2.54  0.  0.  0.
256  2.55  0.  0.  0.
257  2.56  0.  0.  0.
258  2.57  0.  0.  0.
259  2.58  0.  0.  0.
260  2.59  0.  0.  0.
261  2.60  0.  0.  0.
262  2.61  0.  0.  0.
263  2.62  0.  0.  0.
264  2.63  0.  0.  0.
265  2.64  0.  0.  0.
266  2.65  0.  0.  0.
267  2.66  0.  0.  0.
268  2.67  0.  0.  0.
269  2.68  0.  0.  0.
270  2.69  0.  0.  0.
271  2.70  0.  0.  0.
272  2.71  0.  0.  0.
273  2.72  0.  0.  0.
274  2.73  0.  0.  0.
275  2.74  0.  0.  0.
276  2.75  0.  0.  0.
277  2.76  0.  0.  0.
278  2.77  0.  0.  0.
279  2.78  0.  0.  0.
280  2.79  0.  0.  0.
281  2.80  0.  0.  0.
282  2.81  0.  0.  0.
283  2.82  0.  0.  0.
284  2.83  0.  0.  0.
285  2.84  0.  0.  0.
286  2.85  0.  0.  0.
287  2.86  0.  0.  0.
288  2.87  0.  0.  0.
289  2.88  0.  0.  0.
290  2.89  0.  0.  0.
291  2.90  0.  0.  0.
292  2.91  0.  0.  0.
293  2.92  0.  0.  0.
294  2.93  0.  0.  0.
295  2.94  0.  0.  0.
296  2.95  0.  0.  0.
297  2.96  0.  0.  0.
298  2.97  0.  0.  0.
299  2.98  0.  0.  0.
300  2.99  0.  0.  0.
301  3.00  0.  0.  0.
302  3.01  0.  0.  0.
303  3.02  0.  0.  0.
304  3.03  0.  0.  0.
305  3.04  0.  0.  0.
306  3.05  0.  0.  0.
307  3.06  0.  0.  0.
308  3.07  0.  0.  0.
309  3.08  0.  0.  0.
310  3.09  0.  0.  0.
311  3.10  0.  0.  0.
312  3.11  0.  0.  0.
313  3.12  0.  0.  0.
314  3.13  0.  0.  0.
315  3.14  0.  0.  0.
316  3.15  0.  0.  0.
317  3.16  0.  0.  0.
318  3.17  0.  0.  0.
319  3.18  0.  0.  0.
320  3.19  0.  0.  0.
321  3.20  0.  0.  0.
322  3.21  0.  0.  0.
323  3.22  0.  0.  0.
324  3.23  0.  0.  0.
325  3.24  0.  0.  0.
326  3.25  0.  0.  0.
327  3.26  0.  0.  0.
328  3.27  0.  0.  0.
329  3.28  0.  0.  0.
330  3.29  0.  0.  0.
331  3.30  0.  0.  0.
332  3.31  0.  0.  0.
333  3.32  0.  0.  0.
334  3.33  0.  0.  0.
335  3.34  0.  0.  0.
336  3.35  0.  0.  0.
337  3.36  0.  0.  0.
338  3.37  0.  0.  0.
339  3.38  0.  0.  0.
340  3.39  0.  0.  0.
341  3.40  0.  0.  0.
342  3.41  0.  0.  0.
343  3.42  0.  0.  0.
344  3.43  0.  0.  0.
345  3.44  0.  0.  0.
346  3.45  0.  0.  0.
347  3.46  0.  0.  0.
348  3.47  0.  0.  0.
349  3.48  0.  0.  0.
350  3.49  0.  0.  0.
351  3.50  0.  0.  0.
352  3.51  0.  0.  0.
353  3.52  0.  0.  0.
354  3.53  0.  0.  0.
355  3.54  0.  0.  0.
356  3.55  0.  0.  0.
357  3.56  0.  0.  0.
358  3.57  0.  0.  0.
359  3.58  0.  0.  0.
360  3.59  0.  0.  0.
361  3.60  0.  0.  0.
362  3.61  0.  0.  0.
363  3.62  0.  0.  0.
364  3.63  0.  0.  0.
365  3.64  0.  0.  0.
366  3.65  0.  0.  0.
367  3.66  0.  0.  0.
368  3.67  0.  0.  0.
369  3.68  0.  0.  0.
370  3.69  0.  0.  0.
371  3.70  0.  0.  0.
372  3.71  0.  0.  0.
373  3.72  0.  0.  0.
374  3.73  0.  0.  0.
375  3.74  0.  0.  0.
376  3.75  0.  0.  0.
377  3.76  0.  0.  0.
378  3.77  0.  0.  0.
379  3.78  0.  0.  0.
380  3.79  0.  0.  0.
381  3.80  0.  0.  0.
382  3.81  0.  0.  0.
383  3.82  0.  0.  0.
384  3.83  0.  0.  0.
385  3.84  0.  0.  0.
386  3.85  0.  0.  0.
387  3.86  0.  0.  0.
388  3.87  0.  0.  0.
389  3.88  0.  0.  0.
390  3.89  0.  0.  0.
391  3.90  0.  0.  0.
392  3.91  0.  0.  0.
393  3.92  0.  0.  0.
394  3.93  0.  0.  0.
395  3.94  0.  0.  0.
396  3.95  0.  0.  0.
397  3.96  0.  0.  0.
398  3.97  0.  0.  0.
399  3.98  0.  0.  0.
400  3.99  0.  0.  0.
401  4.00  0.  0.  0.
402  4.01  0.  0.  0.
403  4.02  0.  0.  0.
404  4.03  0.  0.  0.
405  4.04  0.  0.  0.
406  4.05  0.  0.  0.
407  4.06  0.  0.  0.
408  4.07  0.  0.  0.
409  4.08  0.  0.  0.
410  4.09  0.  0.  0.
411  4.10  0.  0.  0.
412  4.11  0.  0.  0.
413  4.12  0.  0.  0.
414  4.13  0.  0.  0.
415  4.14  0.  0.  0.
416  4.15  0.  0.  0.
417  4.16  0.  0.  0.
418  4.17  0.  0.  0.
419  4.18  0.  0.  0.
420  4.19  0.  0.  0.
421  4.20  0.  0.  0.
422  4.21  0.  0.  0.
423  4.22  0.  0.  0.
424  4.23  0.  0.  0.
425  4.24  0.  0.  0.
426  4.25  0.  0.  0.
427  4.26  0.  0.  0.
428  4.27  0.  0.  0.
429  4.28  0.  0.  0.
430  4.29  0.  0.  0.
431  4.30  0.  0.  0.
432  4.31  0.  0.  0.
433  4.32  0.  0.  0.
434  4.33  0.  0.  0.
435  4.34  0.  0.  0.
436  4.35  0.  0.  0.
437  4.36  0.  0.  0.
438  4.37  0.  0.  0.
439  4.38  0.  0.  0.
440  4.39  0.  0.  0.
441  4.40  0.  0.  0.
442  4.41  0.  0.  0.
443  4.42  0.  0.  0.
444  4.43  0.  0.  0.
445  4.44  0.  0.  0.
446  4.45  0.  0.  0.
447  4.46  0.  0.  0.
448  4.47  0.  0.  0.
449  4.48  0.  0.  0.
450  4.49  0.  0.  0.
451  4.50  0.  0.  0.
452  4.51  0.  0.  0.
453  4.52  0.  0.  0.
454  4.53  0.  0.  0.
455  4.54  0.  0.  0.
456  4.55  0.  0.  0.
457  4.56  0.  0.  0.
458  4.57  0.  0.  0.
459  4.58  0.  0.  0.
460  4.59  0.  0.  0.
461  4.60  0.  0.  0.
462  4.61  0.  0.  0.
463  4.62  0.  0.  0.
464  4.63  0.  0.  0.
465  4.64  0.  0.  0.
466  4.65  0.  0.  0.
467  4.66  0.  0.  0.
468  4.67  0.  0.  0.
469  4.68  0.  0.  0.
470  4.69  0.  0.  0.
471  4.70  0.  0.  0.
472  4.71  0.  0.  0.
473  4.72  0.  0.  0.
474  4.73  0.  0.  0.
475  4.74  0.  0.  0.
476  4.75  0.  0.  0.
477  4.76  0.  0.  0.
478  4.77  0.  0.  0.
479  4.78  0.  0.  0.
480  4.79  0.  0.  0.
481  4.80  0.  0.  0.
482  4.81  0.  0.  0.
483  4.82  0.  0.  0.
484  4.83  0.  0.  0.
485  4.84  0.  0.  0.
486  4.85  0.  0.  0.
487  4.86  0.  0.  0.
488  4.87  0.  0.  0.
489  4.88  0.  0.  0.
490  4.89  0.  0.  0.
491  4.90  0.  0.  0.
492  4.91  0.  0.  0.
493  4.92  0.  0.  0.
494  4.93  0.  0.  0.
495  4.94  0.  0.  0.
496  4.95  0.  0.  0.
497  4.96  0.  0.  0.
498  4.97  0.  0.  0.
499  4.98  0.  0.  0.
500  4.99  0.  0.  0.
501  5.00  0.  0.  0.
502  5.01  0.  0.  0.
503  5.02  0.  0.  0.
504  5.03  0.  0.  0.
505  5.04  0.  0.  0.
506  5.05  0.  0.  0.
507  5.06  0.  0.  0.
508  5.07  0.  0.  0.
509  5.08  0.  0.  0.
510  5.09  0.  0.  0.
511  5.10  0.  0.  0.
512  5.11  0.  0.  0.
513  5.12  0.  0.  0.
514  5.13  0.  0.  0.
515  5.14  0.  0.  0.
516  5.15  0.  0.  0.
517  5.16  0.  0.  0.
518  5.17  0.  0.  0.
519  5.18  0.  0.  0.
520  5.19  0.  0.  0.
521  5.20  0.  0.  0.
522  5.21  0.  0.  0.
523  5.22  0.  0.  0.
524  5.23  0.  0.  0.
525  5.24  0.  0.  0.
526  5.25  0.  0.  0.
527  5.26  0.  0.  0.
528  5.27  0.  0.  0.
529  5.28  0.  0.  0.
530  5.29  0.  0.  0.
531  5.30  0.  0.  0.
532  5.31  0.  0.  0.
533  5.32  0.  0.  0.
534  5.33  0.  0.  0.
535  5.34  0.  0.  0.
536  5.35  0.  0.  0.
537  5.36  0.  0.  0.
538  5.37  0.  0.  0.
539  5.38  0.  0.  0.
540  5.39  0.  0.  0.
541  5.40  0.  0.  0.
542  5.41  0.  0.  0.
543  5.42  0.  0.  0.
544  5.43  0.  0.  0.
545  5.44  0.  0.  0.
546  5.45  0.  0.  0.
547  5.46  0.  0.  0.
548  5.47  0.  0.  0.
549  5.48  0.  0.  0.
550  5.49  0.  0.  0.
551  5.50  0.  0.  0.
552  5.51  0.  0.  0.
553  5.52  0.  0.  0.
554  5.53  0.  0.  0.
555  5.54  0.  0.  0.
556  5.55  0.  0.  0.
557  5.56  0.  0.  0.
558  5.57  0.  0.  0.
559  5.58  0.  0.  0.
560  5.59  0.  0.  0.
561  5.60  0.  0.  0.
562  5.61  0.  0.  0.
563  5.62  0.  0.  0.
564  5.63  0.  0.  0.
565  5.64  0.  0.  0.
566  5.65  0.  0.  0.
567  5.66  0.  0.  0.
568  5.67  0.  0.  0.
569  5.68  0.  0.  0.
570  5.69  0.  0.  0.
571  5.70  0.  0.  0.
572  5.71  0.  0.  0.
573  5.72  0.  0.  0.
574  5.73  0.  0.  0.
575  5.74  0.  0.  0.
576  5.75  0.  0.  0.
577  5.76  0.  0.  0.
578  5.77  0.  0.  0.
579  5.78  0.  0.  0.
580  5.79  0.  0.  0.
581  5.80  0.  0.  0.
582  5.81  0.  0.  0.
583  5.82  0.  0.  0.
584  5.83  0.  0.  0.
585  5.84  0.  0.  0.
586  5.85  0.  0.  0.
587  5.86  0.  0.  0.
588  5.87  0.  0.  0.
589  5.88  0.  0.  0.
590  5.89  0.  0.  0.
591  5.90  0.  0.  0.
592  5.91  0.  0.  0.
593  5.92  0.  0.  0.
594  5.93  0.  0.  0.
595  5.94  0.  0.  0.
596  5.95  0.  0.  0.
597  5.96  0.  0.  0.
598  5.97  0.  0.  0.
599  5.98  0.  0.  0.
600  5.99  0.  0.  0.
1                         6.5819892296498E+00  9.4202977671311E-01
1  0.0000000000000E+00 -2.1809883413160E-10  4.5354205298071E-10
2  1.0000000000000E-02  2.4169214164238E-04  2.1980928858509E-05
3  2.0000000000000E-02  9.6771661921481E-04  8.5646038430044E-05
4  3.0000000000000E-02  2.1809050516719E-03  1.8418839386002E-04
5  4.0000000000000E-02  3.8859351244997E-03  3.0634984733490E-04
6  5.0000000000000E-02  6.0892684795939E-03  4.3655030313673E-04
7  6.0000000000000E-02  8.7990645754835E-03  5.5506699561425E-04
8  7.0000000000000E-02  1.2025071323754E-02  6.3826210468942E-04
9  8.0000000000000E-02  1.5778493525615E-02  6.5885657997626E-04
10  9.0000000000000E-02  2.0071840341746E-02  5.8624760964932E-04
11  1.0000000000000E-01  2.4918753226842E-02  3.8686675761942E-04
12  1.1000000000000E-01  3.0333815946167E-02  2.4575406033129E-05
13  1.2000000000000E-01  3.6332348462946E-02 -5.3890621698231E-04
14  1.3000000000000E-01  4.2930186641375E-02 -1.3435404689187E-03
15  1.4000000000000E-01  5.0143449848772E-02 -2.4304885174371E-03
16  1.5000000000000E-01  5.7988298660810E-02 -3.8416059423064E-03
17  1.6000000000000E-01  6.6480684974678E-02 -5.6189225097156E-03
18  1.7000000000000E-01  7.5636096915573E-02 -7.8041110820069E-03
19  1.8000000000000E-01  8.5469300981279E-02 -1.0437950750112E-02
20  1.9000000000000E-01  9.5994083907165E-02 -1.3559789354920E-02
21  2.0000000000000E-01  1.0722299674941E-01 -1.7207010596828E-02
22  2.1000000000000E-01  1.1916710367736E-01 -2.1414510919149E-02
23  2.2000000000000E-01  1.3183573793648E-01 -2.6214191291038E-02
24  2.3000000000000E-01  1.4523626739205E-01 -3.1634468909293E-02
25  2.4000000000000E-01  1.5937387199015E-01 -3.7699813686572E-02