Rn    ONCVPSP-4.0.1  r_core=   1.40439   1.50891   1.40439   1.40439
86.0000     26.0000      220131    zatom,zion,pspd
8      11   3     4   600     0    pspcod,pspxc,lmax,lloc,mmax,r2well
5.99000000  6.00000000  0.00000000    rchrg fchrg qchrg
2     2     2     2     0    nproj
1     1           extension_switch
0                         2.3479959618569E+01  3.0484002870529E+00
1  0.0000000000000E+00  6.0780607213928E-09 -8.9151575011215E-09
2  1.0000000000000E-02  8.2316297954784E-02  1.3811959004190E-02
3  2.0000000000000E-02  1.6451276864742E-01  2.7505937529217E-02
4  3.0000000000000E-02  2.4646707902146E-01  4.0968317530250E-02
5  4.0000000000000E-02  3.2805195601747E-01  5.4094099882659E-02
6  5.0000000000000E-02  4.0913289393146E-01  6.6790951324745E-02
7  6.0000000000000E-02  4.8956607014710E-01  7.8982942919528E-02
8  7.0000000000000E-02  5.6919653137272E-01  9.0613887957577E-02
9  8.0000000000000E-02  6.4785670643541E-01  1.0165019613803E-01
10  9.0000000000000E-02  7.2536529433583E-01  1.1208317164319E-01
11  1.0000000000000E-01  8.0152656780427E-01  1.2193069513116E-01
12  1.1000000000000E-01  8.7613012320466E-01  1.3123824344308E-01
13  1.2000000000000E-01  9.4895109750953E-01  1.4007921565858E-01
14  1.3000000000000E-01  1.0197508624354E+00  1.4855454971385E-01
15  1.4000000000000E-01  1.0882781949124E+00  1.5679162978345E-01
16  1.5000000000000E-01  1.1542709121032E+00  1.6494250067091E-01
17  1.6000000000000E-01  1.2174579484201E+00  1.7318142120516E-01
18  1.7000000000000E-01  1.2775618416528E+00  1.8170180375391E-01
19  1.8000000000000E-01  1.3343015856352E+00  1.9071260110965E-01
20  1.9000000000000E-01  1.3873957980696E+00  2.0043421486549E-01
21  2.0000000000000E-01  1.4365661443710E+00  2.1109401069049E-01
22  2.1000000000000E-01  1.4815409518845E+00  2.2292153538372E-01
23  2.2000000000000E-01  1.5220589436975E+00  2.3614353801737E-01
24  2.3000000000000E-01  1.5578730176411E+00  2.5097890269956E-01
25  2.4000000000000E-01  1.5887539940402E+00  2.6763360337139E-01
26  2.5000000000000E-01  1.6144942553728E+00  2.8629579152457E-01
27  2.6000000000000E-01  1.6349112022667E+00  3.0713112576260E-01
28  2.7000000000000E-01  1.6498504531663E+00  3.3027844775769E-01
29  2.8000000000000E-01  1.6591887194994E+00  3.5584590246010E-01
30  2.9000000000000E-01  1.6628362941660E+00  3.8390759152766E-01
31  3.0000000000000E-01  1.6607390985500E+00  4.1450083804235E-01
32  3.1000000000000E-01  1.6528802418531E+00  4.4762412789352E-01
33  3.2000000000000E-01  1.6392810562068E+00  4.8323577899977E-01
34  3.3000000000000E-01  1.6200015815097E+00  5.2125337411597E-01
35  3.4000000000000E-01  1.5951404850630E+00  5.6155397665658E-01
36  3.5000000000000E-01  1.5648344125808E+00  6.0397513211509E-01
37  3.6000000000000E-01  1.5292567787944E+00  6.4831664063774E-01
38  3.7000000000000E-01  1.4886160174015E+00  6.9434306949027E-01
39  3.8000000000000E-01  1.4431533212730E+00  7.4178695791228E-01
40  3.9000000000000E-01  1.3931399143796E+00  7.9035265154492E-01
41  4.0000000000000E-01  1.3388739066062E+00  8.3972068959188E-01
42  4.1000000000000E-01  1.2806767912638E+00  8.8955265544708E-01
43  4.2000000000000E-01  1.2188896524879E+00  9.3949639098590E-01
44  4.3000000000000E-01  1.1538691556663E+00  9.8919146631577E-01
45  4.4000000000000E-01  1.0859833984222E+00  1.0382747907224E+00
46  4.5000000000000E-01  1.0156077023836E+00  1.0863862469824E+00
47  4.6000000000000E-01  9.4312042693483E-01  1.1331742302433E+00
48  4.7000000000000E-01  8.6889888532365E-01  1.1783009743413E+00
49  4.8000000000000E-01  7.9331544091118E-01  1.2214475527207E+00
50  4.9000000000000E-01  7.1673385703049E-01  1.2623184479717E+00
51  5.0000000000000E-01  6.3950596796192E-01  1.3006455932709E+00
52  5.1000000000000E-01  5.6196873104993E-01  1.3361918005281E+00
53  5.2000000000000E-01  4.8444171113980E-01  1.3687535035559E+00
54  5.3000000000000E-01  4.0722503848888E-01  1.3981627598192E+00
55  5.4000000000000E-01  3.3059787032295E-01  1.4242884709535E+00
56  5.5000000000000E-01  2.5481737450434E-01  1.4470367999113E+00
57  5.6000000000000E-01  1.8011824161186E-01  1.4663507809151E+00
58  5.7000000000000E-01  1.0671271937703E-01  1.4822091369555E+00
59  5.8000000000000E-01  3.4791151153784E-02  1.4946243379633E+00
60  5.9000000000000E-01 -3.5477011800023E-02  1.5036399505810E+00
61  6.0000000000000E-01 -1.0394176570490E-01  1.5093273472563E+00
62  6.1000000000000E-01 -1.7047072912968E-01  1.5117818577853E+00
63  6.2000000000000E-01 -2.3494699836643E-01  1.5111184600759E+00
64  6.3000000000000E-01 -2.9726675214526E-01  1.5074671184605E+00
65  6.4000000000000E-01 -3.5733668076952E-01  1.5009678870553E+00
66  6.5000000000000E-01 -4.1507131926447E-01  1.4917659022261E+00
67  6.6000000000000E-01 -4.7039036678672E-01  1.4800063919649E+00
68  6.7000000000000E-01 -5.2321607525410E-01  1.4658298308112E+00
69  6.8000000000000E-01 -5.7347078888377E-01  1.4493673667864E+00
70  6.9000000000000E-01 -6.2107471307433E-01  1.4307366416703E+00
71  7.0000000000000E-01 -6.6594398588289E-01  1.4100381178967E+00
72  7.1000000000000E-01 -7.0798911832287E-01  1.3873520145355E+00
73  7.2000000000000E-01 -7.4711386097891E-01  1.3627359414492E+00
74  7.3000000000000E-01 -7.8321454417729E-01  1.3362233050429E+00
75  7.4000000000000E-01 -8.1617992737845E-01  1.3078225413798E+00
76  7.5000000000000E-01 -8.4589158081765E-01  1.2775172131831E+00
77  7.6000000000000E-01 -8.7222480898692E-01  1.2452669868021E+00
78  7.7000000000000E-01 -8.9505011162330E-01  1.2110094840290E+00
79  7.8000000000000E-01 -9.1423516375653E-01  1.1746629821845E+00
80  7.9000000000000E-01 -9.2964728239813E-01  1.1361299146286E+00
81  8.0000000000000E-01 -9.4115633394729E-01  1.0953011032772E+00
82  8.1000000000000E-01 -9.4863802366573E-01  1.0520606353077E+00
83  8.2000000000000E-01 -9.5197749694213E-01  1.0062912784619E+00
84  8.3000000000000E-01 -9.5107317181371E-01  9.5788031364504E-01
85  8.4000000000000E-01 -9.4584071360052E-01  9.0672565026487E-01
86  8.5000000000000E-01 -9.3621705576536E-01  8.5274207929508E-01
87  8.6000000000000E-01 -9.2216436643087E-01  7.9586751167572E-01
88  8.7000000000000E-01 -9.0367385751339E-01  7.3606904559966E-01
89  8.8000000000000E-01 -8.8076933327203E-01  6.7334870563302E-01
90  8.9000000000000E-01 -8.5351037727239E-01  6.0774869955880E-01
91  9.0000000000000E-01 -8.2199508132771E-01  5.3935604531704E-01
92  9.1000000000000E-01 -7.8636222685283E-01  4.6830643036753E-01
93  9.2000000000000E-01 -7.4679283814225E-01  3.9478717906509E-01
94  9.3000000000000E-01 -7.0351103820828E-01  3.1903921998452E-01
95  9.4000000000000E-01 -6.5678415078317E-01  2.4135796425957E-01
96  9.5000000000000E-01 -6.0692200665306E-01  1.6209302753991E-01
97  9.6000000000000E-01 -5.5427542836161E-01  8.1646751691917E-02
98  9.7000000000000E-01 -4.9923388417765E-01  4.7150739953259E-04
99  9.8000000000000E-01 -4.4222231971497E-01 -8.0934215160452E-02
100  9.9000000000000E-01 -3.8369719335330E-01 -1.6203089393747E-01
101  1.0000000000000E+00 -3.2414175925422E-01 -2.4224418096475E-01
102  1.0100000000000E+00 -2.6406065891616E-01 -3.2097214107147E-01
103  1.0200000000000E+00 -2.0397389848451E-01 -3.9759341340363E-01
104  1.0300000000000E+00 -1.4441030405336E-01 -4.7147616327155E-01
105  1.0400000000000E+00 -8.5900560624389E-02 -5.4198767163579E-01
106  1.0500000000000E+00 -2.8969951915371E-02 -6.0850439213304E-01
107  1.0600000000000E+00  2.5869072471027E-02 -6.7042229138735E-01
108  1.0700000000000E+00  7.8124369102458E-02 -7.2716727775612E-01
109  1.0800000000000E+00  1.2733147430793E-01 -7.7820551695413E-01
110  1.0900000000000E+00  1.7306074009142E-01 -8.2305343035774E-01
111  1.1000000000000E+00  2.1492409447682E-01 -8.6128717336395E-01
112  1.1100000000000E+00  2.5258129255221E-01 -8.9255139695871E-01
113  1.1200000000000E+00  2.8574553148236E-01 -9.1656710564156E-01
114  1.1300000000000E+00  3.1418831243871E-01 -9.3313843882635E-01
115  1.1400000000000E+00  3.3774344466964E-01 -9.4215822066221E-01
116  1.1500000000000E+00  3.5631010149682E-01 -9.4361214445230E-01
117  1.1600000000000E+00  3.6985485471483E-01 -9.3758148224885E-01
118  1.1700000000000E+00  3.7841263223201E-01 -9.2424423710015E-01
119  1.1800000000000E+00  3.8208656366696E-01 -9.0387468458627E-01
120  1.1900000000000E+00  3.8104669933317E-01 -8.7684128071496E-01
121  1.2000000000000E+00  3.7552760956118E-01 -8.4360294488854E-01
122  1.2100000000000E+00  3.6582489276243E-01 -8.0470375822933E-01
123  1.2200000000000E+00  3.5229064200766E-01 -7.6076614902399E-01
124  1.2300000000000E+00  3.3532794043051E-01 -7.1248266731690E-01
125  1.2400000000000E+00  3.1538447516606E-01 -6.6060647929350E-01
126  1.2500000000000E+00  2.9294537747733E-01 -6.0594073857263E-01
127  1.2600000000000E+00  2.6852541260313E-01 -5.4932701497807E-01
128  1.2700000000000E+00  2.4266065658124E-01 -4.9163298163386E-01
129  1.2800000000000E+00  2.1589980842092E-01 -4.3373957767591E-01
130  1.2900000000000E+00  1.8879529457921E-01 -3.7652787661494E-01
131  1.3000000000000E+00  1.6189432264883E-01 -3.2086588969197E-01
132  1.3100000000000E+00  1.3573009509830E-01 -2.6759561920321E-01
133  1.3200000000000E+00  1.1081169044464E-01 -2.1751796024030E-01
134  1.3300000000000E+00  8.7609458205931E-02 -1.7137041194301E-01
135  1.3400000000000E+00  6.6534593678482E-02 -1.2979600182904E-01
136  1.3500000000000E+00  4.7922949748608E-02 -9.3318274908209E-02
137  1.3600000000000E+00  3.2090454269249E-02 -6.2428326235881E-02
138  1.3700000000000E+00  1.9283405460256E-02 -3.7509391388717E-02
139  1.3800000000000E+00  9.6714486353318E-03 -1.8826347860311E-02
140  1.3900000000000E+00  3.3319704566791E-03 -6.4962110546751E-03
141  1.4000000000000E+00  3.5736946499930E-04 -6.9852666731658E-04
142  1.4100000000000E+00 -3.8369656646957E-05  7.5119264682277E-05
143  1.4200000000000E+00  6.7439721723285E-06 -1.3185929600621E-05
144  1.43 -0.  0.
145  1.44  0.  0.
146  1.45  0.  0.
147  1.46  0.  0.
148  1.47  0.  0.
149  1.48  0.  0.
150  1.49  0.  0.
151  1.50  0.  0.
152  1.51  0.  0.
153  1.52  0.  0.
154  1.53  0.  0.
155  1.54  0.  0.
156  1.55  0.  0.
157  1.56  0.  0.
158  1.57  0.  0.
159  1.58  0.  0.
160  1.59  0.  0.
161  1.60  0.  0.
162  1.61  0.  0.
163  1.62  0.  0.
164  1.63  0.  0.
165  1.64  0.  0.
166  1.65  0.  0.
167  1.66  0.  0.
168  1.67  0.  0.
169  1.68  0.  0.
170  1.69  0.  0.
171  1.70  0.  0.
172  1.71  0.  0.
173  1.72  0.  0.
174  1.73  0.  0.
175  1.74  0.  0.
176  1.75  0.  0.
177  1.76  0.  0.
178  1.77  0.  0.
179  1.78  0.  0.
180  1.79  0.  0.
181  1.80  0.  0.
182  1.81  0.  0.
183  1.82  0.  0.
184  1.83  0.  0.
185  1.84  0.  0.
186  1.85  0.  0.
187  1.86  0.  0.
188  1.87  0.  0.
189  1.88  0.  0.
190  1.89  0.  0.
191  1.90  0.  0.
192  1.91  0.  0.
193  1.92  0.  0.
194  1.93  0.  0.
195  1.94  0.  0.
196  1.95  0.  0.
197  1.96  0.  0.
198  1.97  0.  0.
199  1.98  0.  0.
200  1.99  0.  0.
201  2.00  0.  0.
202  2.01  0.  0.
203  2.02  0.  0.
204  2.03  0.  0.
205  2.04  0.  0.
206  2.05  0.  0.
207  2.06  0.  0.
208  2.07  0.  0.
209  2.08  0.  0.
210  2.09  0.  0.
211  2.10  0.  0.
212  2.11  0.  0.
213  2.12  0.  0.
214  2.13  0.  0.
215  2.14  0.  0.
216  2.15  0.  0.
217  2.16  0.  0.
218  2.17  0.  0.
219  2.18  0.  0.
220  2.19  0.  0.
221  2.20  0.  0.
222  2.21  0.  0.
223  2.22  0.  0.
224  2.23  0.  0.
225  2.24  0.  0.
226  2.25  0.  0.
227  2.26  0.  0.
228  2.27  0.  0.
229  2.28  0.  0.
230  2.29  0.  0.
231  2.30  0.  0.
232  2.31  0.  0.
233  2.32  0.  0.
234  2.33  0.  0.
235  2.34  0.  0.
236  2.35  0.  0.
237  2.36  0.  0.
238  2.37  0.  0.
239  2.38  0.  0.
240  2.39  0.  0.
241  2.40  0.  0.
242  2.41  0.  0.
243  2.42  0.  0.
244  2.43  0.  0.
245  2.44  0.  0.
246  2.45  0.  0.
247  2.46  0.  0.
248  2.47  0.  0.
249  2.48  0.  0.
250  2.49  0.  0.
251  2.50  0.  0.
252  2.51  0.  0.
253  2.52  0.  0.
254  2.53  0.  0.
255  2.54  0.  0.
256  2.55  0.  0.
257  2.56  0.  0.
258  2.57  0.  0.
259  2.58  0.  0.
260  2.59  0.  0.
261  2.60  0.  0.
262  2.61  0.  0.
263  2.62  0.  0.
264  2.63  0.  0.
265  2.64  0.  0.
266  2.65  0.  0.
267  2.66  0.  0.
268  2.67  0.  0.
269  2.68  0.  0.
270  2.69  0.  0.
271  2.70  0.  0.
272  2.71  0.  0.
273  2.72  0.  0.
274  2.73  0.  0.
275  2.74  0.  0.
276  2.75  0.  0.
277  2.76  0.  0.
278  2.77  0.  0.
279  2.78  0.  0.
280  2.79  0.  0.
281  2.80  0.  0.
282  2.81  0.  0.
283  2.82  0.  0.
284  2.83  0.  0.
285  2.84  0.  0.
286  2.85  0.  0.
287  2.86  0.  0.
288  2.87  0.  0.
289  2.88  0.  0.
290  2.89  0.  0.
291  2.90  0.  0.
292  2.91  0.  0.
293  2.92  0.  0.
294  2.93  0.  0.
295  2.94  0.  0.
296  2.95  0.  0.
297  2.96  0.  0.
298  2.97  0.  0.
299  2.98  0.  0.
300  2.99  0.  0.
301  3.00  0.  0.
302  3.01  0.  0.
303  3.02  0.  0.
304  3.03  0.  0.
305  3.04  0.  0.
306  3.05  0.  0.
307  3.06  0.  0.
308  3.07  0.  0.
309  3.08  0.  0.
310  3.09  0.  0.
311  3.10  0.  0.
312  3.11  0.  0.
313  3.12  0.  0.
314  3.13  0.  0.
315  3.14  0.  0.
316  3.15  0.  0.
317  3.16  0.  0.
318  3.17  0.  0.
319  3.18  0.  0.
320  3.19  0.  0.
321  3.20  0.  0.
322  3.21  0.  0.
323  3.22  0.  0.
324  3.23  0.  0.
325  3.24  0.  0.
326  3.25  0.  0.
327  3.26  0.  0.
328  3.27  0.  0.
329  3.28  0.  0.
330  3.29  0.  0.
331  3.30  0.  0.
332  3.31  0.  0.
333  3.32  0.  0.
334  3.33  0.  0.
335  3.34  0.  0.
336  3.35  0.  0.
337  3.36  0.  0.
338  3.37  0.  0.
339  3.38  0.  0.
340  3.39  0.  0.
341  3.40  0.  0.
342  3.41  0.  0.
343  3.42  0.  0.
344  3.43  0.  0.
345  3.44  0.  0.
346  3.45  0.  0.
347  3.46  0.  0.
348  3.47  0.  0.
349  3.48  0.  0.
350  3.49  0.  0.
351  3.50  0.  0.
352  3.51  0.  0.
353  3.52  0.  0.
354  3.53  0.  0.
355  3.54  0.  0.
356  3.55  0.  0.
357  3.56  0.  0.
358  3.57  0.  0.
359  3.58  0.  0.
360  3.59  0.  0.
361  3.60  0.  0.
362  3.61  0.  0.
363  3.62  0.  0.
364  3.63  0.  0.
365  3.64  0.  0.
366  3.65  0.  0.
367  3.66  0.  0.
368  3.67  0.  0.
369  3.68  0.  0.
370  3.69  0.  0.
371  3.70  0.  0.
372  3.71  0.  0.
373  3.72  0.  0.
374  3.73  0.  0.
375  3.74  0.  0.
376  3.75  0.  0.
377  3.76  0.  0.
378  3.77  0.  0.
379  3.78  0.  0.
380  3.79  0.  0.
381  3.80  0.  0.
382  3.81  0.  0.
383  3.82  0.  0.
384  3.83  0.  0.
385  3.84  0.  0.
386  3.85  0.  0.
387  3.86  0.  0.
388  3.87  0.  0.
389  3.88  0.  0.
390  3.89  0.  0.
391  3.90  0.  0.
392  3.91  0.  0.
393  3.92  0.  0.
394  3.93  0.  0.
395  3.94  0.  0.
396  3.95  0.  0.
397  3.96  0.  0.
398  3.97  0.  0.
399  3.98  0.  0.
400  3.99  0.  0.
401  4.00  0.  0.
402  4.01  0.  0.
403  4.02  0.  0.
404  4.03  0.  0.
405  4.04  0.  0.
406  4.05  0.  0.
407  4.06  0.  0.
408  4.07  0.  0.
409  4.08  0.  0.
410  4.09  0.  0.
411  4.10  0.  0.
412  4.11  0.  0.
413  4.12  0.  0.
414  4.13  0.  0.
415  4.14  0.  0.
416  4.15  0.  0.
417  4.16  0.  0.
418  4.17  0.  0.
419  4.18  0.  0.
420  4.19  0.  0.
421  4.20  0.  0.
422  4.21  0.  0.
423  4.22  0.  0.
424  4.23  0.  0.
425  4.24  0.  0.
426  4.25  0.  0.
427  4.26  0.  0.
428  4.27  0.  0.
429  4.28  0.  0.
430  4.29  0.  0.
431  4.30  0.  0.
432  4.31  0.  0.
433  4.32  0.  0.
434  4.33  0.  0.
435  4.34  0.  0.
436  4.35  0.  0.
437  4.36  0.  0.
438  4.37  0.  0.
439  4.38  0.  0.
440  4.39  0.  0.
441  4.40  0.  0.
442  4.41  0.  0.
443  4.42  0.  0.
444  4.43  0.  0.
445  4.44  0.  0.
446  4.45  0.  0.
447  4.46  0.  0.
448  4.47  0.  0.
449  4.48  0.  0.
450  4.49  0.  0.
451  4.50  0.  0.
452  4.51  0.  0.
453  4.52  0.  0.
454  4.53  0.  0.
455  4.54  0.  0.
456  4.55  0.  0.
457  4.56  0.  0.
458  4.57  0.  0.
459  4.58  0.  0.
460  4.59  0.  0.
461  4.60  0.  0.
462  4.61  0.  0.
463  4.62  0.  0.
464  4.63  0.  0.
465  4.64  0.  0.
466  4.65  0.  0.
467  4.66  0.  0.
468  4.67  0.  0.
469  4.68  0.  0.
470  4.69  0.  0.
471  4.70  0.  0.
472  4.71  0.  0.
473  4.72  0.  0.
474  4.73  0.  0.
475  4.74  0.  0.
476  4.75  0.  0.
477  4.76  0.  0.
478  4.77  0.  0.
479  4.78  0.  0.
480  4.79  0.  0.
481  4.80  0.  0.
482  4.81  0.  0.
483  4.82  0.  0.
484  4.83  0.  0.
485  4.84  0.  0.
486  4.85  0.  0.
487  4.86  0.  0.
488  4.87  0.  0.
489  4.88  0.  0.
490  4.89  0.  0.
491  4.90  0.  0.
492  4.91  0.  0.
493  4.92  0.  0.
494  4.93  0.  0.
495  4.94  0.  0.
496  4.95  0.  0.
497  4.96  0.  0.
498  4.97  0.  0.
499  4.98  0.  0.
500  4.99  0.  0.
501  5.00  0.  0.
502  5.01  0.  0.
503  5.02  0.  0.
504  5.03  0.  0.
505  5.04  0.  0.
506  5.05  0.  0.
507  5.06  0.  0.
508  5.07  0.  0.
509  5.08  0.  0.
510  5.09  0.  0.
511  5.10  0.  0.
512  5.11  0.  0.
513  5.12  0.  0.
514  5.13  0.  0.
515  5.14  0.  0.
516  5.15  0.  0.
517  5.16  0.  0.
518  5.17  0.  0.
519  5.18  0.  0.
520  5.19  0.  0.
521  5.20  0.  0.
522  5.21  0.  0.
523  5.22  0.  0.
524  5.23  0.  0.
525  5.24  0.  0.
526  5.25  0.  0.
527  5.26  0.  0.
528  5.27  0.  0.
529  5.28  0.  0.
530  5.29  0.  0.
531  5.30  0.  0.
532  5.31  0.  0.
533  5.32  0.  0.
534  5.33  0.  0.
535  5.34  0.  0.
536  5.35  0.  0.
537  5.36  0.  0.
538  5.37  0.  0.
539  5.38  0.  0.
540  5.39  0.  0.
541  5.40  0.  0.
542  5.41  0.  0.
543  5.42  0.  0.
544  5.43  0.  0.
545  5.44  0.  0.
546  5.45  0.  0.
547  5.46  0.  0.
548  5.47  0.  0.
549  5.48  0.  0.
550  5.49  0.  0.
551  5.50  0.  0.
552  5.51  0.  0.
553  5.52  0.  0.
554  5.53  0.  0.
555  5.54  0.  0.
556  5.55  0.  0.
557  5.56  0.  0.
558  5.57  0.  0.
559  5.58  0.  0.
560  5.59  0.  0.
561  5.60  0.  0.
562  5.61  0.  0.
563  5.62  0.  0.
564  5.63  0.  0.
565  5.64  0.  0.
566  5.65  0.  0.
567  5.66  0.  0.
568  5.67  0.  0.
569  5.68  0.  0.
570  5.69  0.  0.
571  5.70  0.  0.
572  5.71  0.  0.
573  5.72  0.  0.
574  5.73  0.  0.
575  5.74  0.  0.
576  5.75  0.  0.
577  5.76  0.  0.
578  5.77  0.  0.
579  5.78  0.  0.
580  5.79  0.  0.
581  5.80  0.  0.
582  5.81  0.  0.
583  5.82  0.  0.
584  5.83  0.  0.
585  5.84  0.  0.
586  5.85  0.  0.
587  5.86  0.  0.
588  5.87  0.  0.
589  5.88  0.  0.
590  5.89  0.  0.
591  5.90  0.  0.
592  5.91  0.  0.
593  5.92  0.  0.
594  5.93  0.  0.
595  5.94  0.  0.
596  5.95  0.  0.
597  5.96  0.  0.
598  5.97  0.  0.
599  5.98  0.  0.
600  5.99  0.  0.
1                         7.0254608348637E+00  1.0054977358209E+00
1  0.0000000000000E+00 -9.6613027716907E-09  2.2341912916946E-08
2  1.0000000000000E-02  1.6656003853807E-03  8.9632335602754E-04
3  2.0000000000000E-02  6.6629708496698E-03  3.5627277719149E-03
4  3.0000000000000E-02  1.4993603623669E-02  7.9320959830509E-03
5  4.0000000000000E-02  2.6659272658621E-02  1.3894484682954E-02
6  5.0000000000000E-02  4.1660984417319E-02  2.1299955755200E-02
7  6.0000000000000E-02  5.9997549382267E-02  2.9962447131491E-02
8  7.0000000000000E-02  8.1663813568364E-02  3.9664592888658E-02
9  8.0000000000000E-02  1.0664859898887E-01  5.0163379855515E-02
10  9.0000000000000E-02  1.3493241055916E-01  6.1196508166838E-02
11  1.0000000000000E-01  1.6648497413270E-01  7.2489306323249E-02
12  1.1000000000000E-01  2.0126267607732E-01  8.3762037772996E-02
13  1.2000000000000E-01  2.3920597887882E-01  9.4737426136151E-02
14  1.3000000000000E-01  2.8023688960049E-01  1.0514822017370E-01
15  1.4000000000000E-01  3.2425655856606E-01  1.1474461761171E-01
16  1.5000000000000E-01  3.7114308434516E-01  1.2330136902438E-01
17  1.6000000000000E-01  4.2074959801931E-01  1.3062438912940E-01
18  1.7000000000000E-01  4.7290269484701E-01  1.3655671293839E-01
19  1.8000000000000E-01  5.2740127492441E-01  1.4098364802916E-01
20  1.9000000000000E-01  5.8401584638252E-01  1.4383699147799E-01
21  2.0000000000000E-01  6.4248833524141E-01  1.4509820034622E-01
22  2.1000000000000E-01  7.0253243545197E-01  1.4480042762196E-01
23  2.2000000000000E-01  7.6383452112240E-01  1.4302936068088E-01
24  2.3000000000000E-01  8.2605513069636E-01  1.3992282610651E-01
25  2.4000000000000E-01  8.8883102018854E-01  1.3566915251593E-01
26  2.5000000000000E-01  9.5177776976614E-01  1.3050431126229E-01
27  2.6000000000000E-01  1.0144929152767E+00  1.2470788290804E-01
28  2.7000000000000E-01  1.0765595640436E+00  1.1859792455805E-01
29  2.8000000000000E-01  1.1375504426600E+00  1.1252483890011E-01
30  2.9000000000000E-01  1.1970323138700E+00  1.0686436953771E-01
31  3.0000000000000E-01  1.2545706901854E+00  1.0200986837192E-01
32  3.1000000000000E-01  1.3097347638611E+00  9.8363998903520E-02
33  3.2000000000000E-01  1.3621024664440E+00  9.6330053951946E-02
34  3.3000000000000E-01  1.4112655664784E+00  9.6303077067751E-02
35  3.4000000000000E-01  1.4568347112145E+00  9.8660983572775E-02
36  3.5000000000000E-01  1.4984443174172E+00  1.0375587950843E-01
37  3.6000000000000E-01  1.5357572176458E+00  1.1190577471238E-01
38  3.7000000000000E-01  1.5684689716754E+00  1.2338687977572E-01
39  3.8000000000000E-01  1.5963117580045E+00  1.3842666585564E-01
40  3.9000000000000E-01  1.6190577675605E+00  1.5719785142295E-01
41  4.0000000000000E-01  1.6365220306338E+00  1.7981346129686E-01
42  4.1000000000000E-01  1.6485646185804E+00  2.0632308113258E-01
43  4.2000000000000E-01  1.6550921737173E+00  2.3671040533549E-01
44  4.3000000000000E-01  1.6560587338566E+00  2.7089214870129E-01
45  4.4000000000000E-01  1.6514658318177E+00  3.0871836251297E-01
46  4.5000000000000E-01  1.6413618647252E+00  3.4997416499372E-01
47  4.6000000000000E-01  1.6258407426460E+00  3.9438286459373E-01
48  4.7000000000000E-01  1.6050398408168E+00  4.4161042326441E-01
49  4.8000000000000E-01  1.5791372940525E+00  4.9127117634860E-01
50  4.9000000000000E-01  1.5483486855827E+00  5.4293469667359E-01
51  5.0000000000000E-01  1.5129231952439E+00  5.9613366354419E-01
52  5.1000000000000E-01  1.4731392833617E+00  6.5037257321739E-01
53  5.2000000000000E-01  1.4292999965344E+00  7.0513710667474E-01
54  5.3000000000000E-01  1.3817279896453E+00  7.5990395359642E-01
55  5.4000000000000E-01  1.3307603645814E+00  8.1415087881135E-01
56  5.5000000000000E-01  1.2767434301765E+00  8.6736680948936E-01
57  5.6000000000000E-01  1.2200274896997E+00  9.1906171819384E-01
58  5.7000000000000E-01  1.1609617617304E+00  9.6877607876532E-01
59  5.8000000000000E-01  1.0998895374629E+00  1.0160896788836E+00
60  5.9000000000000E-01  1.0371436724204E+00  1.0606295849766E+00
61  6.0000000000000E-01  9.7304250330072E-01  1.1020770717148E+00
62  6.1000000000000E-01  9.0788627137477E-01  1.1401733493452E+00
63  6.2000000000000E-01  8.4195412267845E-01  1.1747239471798E+00
64  6.3000000000000E-01  7.7550174241997E-01  1.2056016401520E+00
65  6.4000000000000E-01  7.0875966682283E-01  1.2327478369129E+00
66  6.5000000000000E-01  6.4193230034124E-01  1.2561723817860E+00
67  6.6000000000000E-01  5.7519765014800E-01  1.2759517583257E+00
68  6.7000000000000E-01  5.0870777334793E-01  1.2922257184521E+00
69  6.8000000000000E-01  4.4258991587825E-01  1.3051923973747E+00
70  6.9000000000000E-01  3.7694830588540E-01  1.3151020099566E+00
71  7.0000000000000E-01  3.1186654888054E-01  1.3222492580082E+00
72  7.1000000000000E-01  2.4741055752956E-01  1.3269646094539E+00
73  7.2000000000000E-01  1.8363193586234E-01  1.3296046386478E+00
74  7.3000000000000E-01  1.2057172630251E-01  1.3305416416438E+00
75  7.4000000000000E-01  5.8264418499214E-02  1.3301527603463E+00
76  7.5000000000000E-01 -3.2578882758187E-03  1.3288088646542E+00
77  7.6000000000000E-01 -6.3961282226037E-02  1.3268634515563E+00
78  7.7000000000000E-01 -1.2380591097201E-01  1.3246418243241E+00
79  7.8000000000000E-01 -1.8274204335266E-01  1.3224308132962E+00
80  7.9000000000000E-01 -2.4070643311446E-01  1.3204692922040E+00
81  8.0000000000000E-01 -2.9761909090666E-01  1.3189397306132E+00
82  8.1000000000000E-01 -3.5338056285275E-01  1.3179610040520E+00
83  8.2000000000000E-01 -4.0786980342896E-01  1.3175826591022E+00
84  8.3000000000000E-01 -4.6094271764885E-01  1.3177808015783E+00
85  8.4000000000000E-01 -5.1243143288267E-01  1.3184557424936E+00
86  8.5000000000000E-01 -5.6214434432711E-01  1.3194314994631E+00
87  8.6000000000000E-01 -6.0986696052837E-01  1.3204572112955E+00
88  8.7000000000000E-01 -6.5536355682024E-01  1.3212104815953E+00
89  8.8000000000000E-01 -6.9837962546959E-01  1.3213026241379E+00
90  8.9000000000000E-01 -7.3864509214293E-01  1.3202857395172E+00
91  9.0000000000000E-01 -7.7587824944383E-01  1.3176615100382E+00
92  9.1000000000000E-01 -8.0979034014889E-01  1.3128915589972E+00
93  9.2000000000000E-01 -8.4009070580477E-01  1.3054091822697E+00
94  9.3000000000000E-01 -8.6649240093659E-01  1.2946322253962E+00
95  9.4000000000000E-01 -8.8871815962642E-01  1.2799768489347E+00
96  9.5000000000000E-01 -9.0650658998078E-01  1.2608718994722E+00
97  9.6000000000000E-01 -9.1961846330410E-01  1.2367735839851E+00
98  9.7000000000000E-01 -9.2784295886453E-01  1.2071801317357E+00
99  9.8000000000000E-01 -9.3100372215685E-01  1.1716461209788E+00
100  9.9000000000000E-01 -9.2896459465066E-01  1.1297961476837E+00
101  1.0000000000000E+00 -9.2163487620562E-01  1.0813375203586E+00
102  1.0100000000000E+00 -9.0897398762323E-01  1.0260716788563E+00
103  1.0200000000000E+00 -8.9099541010352E-01  9.6390405555736E-01
104  1.0300000000000E+00 -8.6776979052440E-01  8.9485212421577E-01
105  1.0400000000000E+00 -8.3942711624057E-01  8.1905141452341E-01
106  1.0500000000000E+00 -8.0615788025693E-01  7.3675930853832E-01
107  1.0600000000000E+00 -7.6821317678261E-01  6.4835647768466E-01
108  1.0700000000000E+00 -7.2590368798534E-01  5.5434586532454E-01
109  1.0800000000000E+00 -6.7959754480835E-01  4.5534916896712E-01
110  1.0900000000000E+00 -6.2971706746312E-01  3.5210082686219E-01
111  1.1000000000000E+00 -5.7673441434456E-01  2.4543956530047E-01
112  1.1100000000000E+00 -5.2116619092669E-01  1.3629761384595E-01
113  1.1200000000000E+00 -4.6356709243302E-01  2.5687745397862E-02
114  1.1300000000000E+00 -4.0452267502938E-01 -8.5311655153450E-02
115  1.1400000000000E+00 -3.4464136968966E-01 -1.9557324644430E-01
116  1.1500000000000E+00 -2.8454587014120E-01 -3.0393882435154E-01
117  1.1600000000000E+00 -2.2486404115348E-01 -4.0923853446621E-01
118  1.1700000000000E+00 -1.6621950541944E-01 -5.1031085676668E-01
119  1.1800000000000E+00 -1.0922207622409E-01 -6.0602299551980E-01
120  1.1900000000000E+00 -5.4458208670362E-02 -6.9529129447761E-01
121  1.2000000000000E+00 -2.4816443578038E-03 -7.7710129210004E-01
122  1.2100000000000E+00  4.6195577029567E-02 -8.5052703409127E-01
123  1.2200000000000E+00  9.1111570793605E-02 -9.1474927102483E-01
124  1.2300000000000E+00  1.3186236503720E-01 -9.6907218706695E-01
125  1.2400000000000E+00  1.6810881515017E-01 -1.0129383314039E+00
126  1.2500000000000E+00  1.9958254197387E-01 -1.0459414567634E+00
127  1.2600000000000E+00  2.2609077846163E-01 -1.0678370082677E+00
128  1.2700000000000E+00  2.4752003006597E-01 -1.0785500504899E+00
129  1.2800000000000E+00  2.6383847661892E-01 -1.0781804699435E+00
130  1.2900000000000E+00  2.7509706791461E-01 -1.0670053440042E+00
131  1.3000000000000E+00  2.8142928386573E-01 -1.0454784052705E+00
132  1.3100000000000E+00  2.8304960718773E-01 -1.0142267225278E+00
133  1.3200000000000E+00  2.8024881212422E-01 -9.7403959338274E-01
134  1.3300000000000E+00  2.7338116070712E-01 -9.2583697100701E-01
135  1.3400000000000E+00  2.6285367418386E-01 -8.7064444398801E-01
136  1.3500000000000E+00  2.4911904162899E-01 -8.0957840852174E-01
137  1.3600000000000E+00  2.3266762598916E-01 -7.4382922736732E-01
138  1.3700000000000E+00  2.1401877529550E-01 -6.7464285726546E-01
139  1.3800000000000E+00  1.9371152697357E-01 -6.0330110284069E-01
140  1.3900000000000E+00  1.7229489157374E-01 -5.3110090972034E-01
141  1.4000000000000E+00  1.5031789193961E-01 -4.5933307911267E-01
142  1.4100000000000E+00  1.2831955588823E-01 -3.8926083426215E-01
143  1.4200000000000E+00  1.0681893737667E-01 -3.2209842446792E-01
144  1.4300000000000E+00  8.6305813438824E-02 -2.5899109101721E-01
145  1.4400000000000E+00  6.7221360978169E-02 -2.0097502799836E-01
146  1.4500000000000E+00  4.9945077982486E-02 -1.4894891939636E-01
147  1.4600000000000E+00  3.4842842643218E-02 -1.0376961281698E-01
148  1.4700000000000E+00  2.2217754672383E-02 -6.6154306559292E-02
149  1.4800000000000E+00  1.2302743895659E-02 -3.6664480054293E-02
150  1.4900000000000E+00  5.2574246897882E-03 -1.5699649969261E-02
151  1.5000000000000E+00  1.1613022318267E-03 -3.4788031265854E-03
152  1.5100000000000E+00 -3.2806056107487E-05  9.8576270622572E-05
153  1.5200000000000E+00  1.3149803696997E-05 -3.9467913953118E-05
154  1.53 -0.  0.
155  1.54  0. -0.
156  1.55  0.  0.
157  1.56  0.  0.
158  1.57  0.  0.
159  1.58  0.  0.
160  1.59  0.  0.
161  1.60  0.  0.
162  1.61  0.  0.
163  1.62  0.  0.
164  1.63  0.  0.
165  1.64  0.  0.
166  1.65  0.  0.
167  1.66  0.  0.
168  1.67  0.  0.
169  1.68  0.  0.
170  1.69  0.  0.
171  1.70  0.  0.
172  1.71  0.  0.
173  1.72  0.  0.
174  1.73  0.  0.
175  1.74  0.  0.
176  1.75  0.  0.
177  1.76  0.  0.
178  1.77  0.  0.
179  1.78  0.  0.
180  1.79  0.  0.
181  1.80  0.  0.
182  1.81  0.  0.
183  1.82  0.  0.
184  1.83  0.  0.
185  1.84  0.  0.
186  1.85  0.  0.
187  1.86  0.  0.
188  1.87  0.  0.
189  1.88  0.  0.
190  1.89  0.  0.
191  1.90  0.  0.
192  1.91  0.  0.
193  1.92  0.  0.
194  1.93  0.  0.
195  1.94  0.  0.
196  1.95  0.  0.
197  1.96  0.  0.
198  1.97  0.  0.
199  1.98  0.  0.
200  1.99  0.  0.
201  2.00  0.  0.
202  2.01  0.  0.
203  2.02  0.  0.
204  2.03  0.  0.
205  2.04  0.  0.
206  2.05  0.  0.
207  2.06  0.  0.
208  2.07  0.  0.
209  2.08  0.  0.
210  2.09  0.  0.
211  2.10  0.  0.
212  2.11  0.  0.
213  2.12  0.  0.
214  2.13  0.  0.
215  2.14  0.  0.
216  2.15  0.  0.
217  2.16  0.  0.
218  2.17  0.  0.
219  2.18  0.  0.
220  2.19  0.  0.
221  2.20  0.  0.
222  2.21  0.  0.
223  2.22  0.  0.
224  2.23  0.  0.
225  2.24  0.  0.
226  2.25  0.  0.
227  2.26  0.  0.
228  2.27  0.  0.
229  2.28  0.  0.
230  2.29  0.  0.
231  2.30  0.  0.
232  2.31  0.  0.
233  2.32  0.  0.
234  2.33  0.  0.
235  2.34  0.  0.
236  2.35  0.  0.
237  2.36  0.  0.
238  2.37  0.  0.
239  2.38  0.  0.
240  2.39  0.  0.
241  2.40  0.  0.
242  2.41  0.  0.
243  2.42  0.  0.
244  2.43  0.  0.
245  2.44  0.  0.
246  2.45  0.  0.
247  2.46  0.  0.