<?xml version="1.0" encoding="UTF-8" ?>
<psml version="1.1" energy_unit="hartree" length_unit="bohr"
 uuid="d34c7850-c73d-11ed-6247-5a8cf37f8199"
 xmlns="http://esl.cecam.org/PSML/ns/1.1">
<provenance creator="ONCVPSP-4.0.1+psml-4.0.1-76 (scalar-relativistic)"
 date="2023-03-20">
<annotation action="semilocal-pseudopotential-generation"
 action-cont="projectors-generation" />
<input-file name="oncvpsp-input">
<![CDATA[# atsym z nc nv iexc psfile
Rn 86 10 5 4 both
# n l f
1 0 2.0
2 0 2.0
2 1 6.0
3 0 2.0
3 1 6.0
3 2 10.0
4 0 2.0
4 1 6.0
4 2 10.0
4 3 14.0
5 0 2.0
5 1 6.0
5 2 10.0
6 0 2.0
6 1 6.0
# lmax
3
# l rc ep ncon nbas qcut
0 1.4 0.0 4 8 9.0
1 1.5 0.0 4 8 8.4
2 1.4 0.0 4 8 9.0
3 1.5 0.05 4 8 7.0
# lloc lpopt rc5 dvloc0
4 5 1.3 0.0
# l nproj debl
0 2 1.0
1 2 1.0
2 2 2.5
3 1 2.0
# icmod fcfact rcfact
3 6.0 1.34
# epsh1 epsh2 depsh
-12.0 12.0 0.02
#-25.0 12.0 0.02
# rlmax drl
6.0 0.01
0
]]>
</input-file>
</provenance>
<pseudo-atom-spec atomic-label="Rn" atomic-number="86" z-pseudo="26"
 flavor="Hamann&apos;s oncvpsp" relativity="scalar" spin-dft="no"
 core-corrections="yes">
<annotation pseudo-energy="-292.618681879" cutoff_hint_low="35"
 cutoff_hint_normal="37" cutoff_hint_high="47" />
<exchange-correlation>
<annotation oncvpsp-xc-code="4" oncvpsp-xc-type="GGA -- Perdew-Burke-Ernzerhof" />
<libxc-info number-of-functionals="2">
<functional name="Perdew, Burke &amp; Ernzerhof (GGA)" type="exchange" id="101" />
<functional name="Perdew, Burke &amp; Ernzerhof (GGA)" type="correlation"
 id="130" />
</libxc-info>
</exchange-correlation>
<valence-configuration total-valence-charge="26">
<shell n="5" l="s" occupation="2" />
<shell n="5" l="p" occupation="6" />
<shell n="5" l="d" occupation="10" />
<shell n="6" l="s" occupation="2" />
<shell n="6" l="p" occupation="6" />
</valence-configuration>
</pseudo-atom-spec>
<grid npts="797">
<annotation type="sampled from oncvpsp log grid"
 recipe="r(i:1..N) = r1*exp(a*(i-1)) + r=0; resampled"
 recipe-cont="r1: scale; a: step" scale="0.581395348837E-05"
 step="0.598207167755E-02" delta="0.500000000000E-02" rmax="44.5779877821" />
<grid-data>
  0.000000000000E+00  5.014062771055E-03  1.003588162514E-02  1.507364278152E-02
  2.008728741396E-02  2.521416328498E-02  3.035162608279E-02  3.545924317562E-02
  4.068956233840E-02  4.586090629785E-02  5.107475427876E-02  5.620487385536E-02
  6.148139149487E-02  6.685215605726E-02  7.225853756503E-02  7.763631908411E-02
  8.291683649795E-02  8.802834389729E-02  9.345495627408E-02  9.862435253569E-02
  1.040796903757E-01  1.091816962772E-01  1.145338034628E-01  1.201482719443E-01
  1.252862452501E-01  1.306439368195E-01  1.362307425977E-01  1.420564603343E-01
  1.472478198470E-01  1.526288941642E-01  1.582066162880E-01  1.639881725827E-01
  1.699810120334E-01  1.751420038205E-01  1.804596944995E-01  1.859388417882E-01
  1.915843478591E-01  1.974012637253E-01  2.033947937594E-01  2.095703003503E-01
  2.146454360839E-01  2.198434756959E-01  2.251673955331E-01  2.306202440197E-01
  2.362051434037E-01  2.419252915437E-01  2.477839637407E-01  2.537845146132E-01
  2.599303800178E-01  2.662250790170E-01  2.726722158940E-01  2.792754822162E-01
  2.843326629717E-01  2.894814202487E-01  2.947234123345E-01  3.000603275453E-01
  3.054938847695E-01  3.110258340216E-01  3.166579570057E-01  3.223920676892E-01
  3.282300128876E-01  3.341736728587E-01  3.402249619083E-01  3.463858290072E-01
  3.526582584182E-01  3.590442703358E-01  3.655459215366E-01  3.721653060417E-01
  3.789045557912E-01  3.857658413308E-01  3.927513725111E-01  3.998633991988E-01
  4.071042120020E-01  4.144761430074E-01  4.219815665319E-01  4.270605366666E-01
  4.322006372860E-01  4.374026041563E-01  4.426671819000E-01  4.479951241013E-01
  4.533871934150E-01  4.588441616749E-01  4.643668100049E-01  4.699559289301E-01
  4.756123184907E-01  4.813367883560E-01  4.871301579407E-01  4.929932565217E-01
  4.989269233572E-01  5.049320078067E-01  5.110093694526E-01  5.171598782234E-01
  5.233844145177E-01  5.296838693308E-01  5.360591443821E-01  5.425111522439E-01
  5.490408164723E-01  5.556490717393E-01  5.623368639668E-01  5.691051504615E-01
  5.759549000524E-01  5.828870932295E-01  5.899027222836E-01  5.970027914490E-01
  6.041883170469E-01  6.114603276308E-01  6.188198641342E-01  6.262679800189E-01
  6.338057414264E-01  6.414342273302E-01  6.491545296904E-01  6.569677536097E-01
  6.648750174922E-01  6.728774532027E-01  6.809762062295E-01  6.891724358477E-01
  6.974673152855E-01  7.058620318923E-01  7.143577873081E-01  7.229557976362E-01
  7.316572936165E-01  7.404635208025E-01  7.493757397389E-01  7.583952261424E-01
  7.675232710842E-01  7.767611811750E-01  7.861102787516E-01  7.955719020667E-01
  8.051474054799E-01  8.148381596523E-01  8.246455517419E-01  8.345709856026E-01
  8.395784115163E-01  8.446158819854E-01  8.496835772773E-01  8.547816787409E-01
  8.599103688134E-01  8.650698310263E-01  8.702602500124E-01  8.754818115125E-01
  8.807347023816E-01  8.860191105959E-01  8.913352252594E-01  8.966832366110E-01
  9.020633360307E-01  9.074757160468E-01  9.129205703431E-01  9.183980937652E-01
  9.239084823278E-01  9.294519332217E-01  9.350286448211E-01  9.406388166900E-01
  9.462826495901E-01  9.519603454877E-01  9.576721075606E-01  9.634181402060E-01
  9.691986490472E-01  9.750138409415E-01  9.808639239871E-01  9.867491075311E-01
  9.926696021762E-01  9.986256197893E-01  1.004617373508E+00  1.010645077749E+00
  1.016708948216E+00  1.022809201905E+00  1.028946057116E+00  1.035119733459E+00
  1.041330451860E+00  1.047578434571E+00  1.053863905178E+00  1.060187088609E+00
  1.066548211141E+00  1.072947500408E+00  1.079385185410E+00  1.085861496523E+00
  1.092376665502E+00  1.098930925495E+00  1.105524511048E+00  1.112157658114E+00
  1.118830604063E+00  1.125543587687E+00  1.132296849213E+00  1.139090630309E+00
  1.145925174091E+00  1.152800725135E+00  1.159717529486E+00  1.166675834663E+00
  1.173675889671E+00  1.180717945009E+00  1.187802252679E+00  1.194929066195E+00
  1.202098640592E+00  1.209311232436E+00  1.216567099830E+00  1.223866502429E+00
  1.231209701444E+00  1.238596959652E+00  1.246028541410E+00  1.253504712659E+00
  1.261025740935E+00  1.268591895380E+00  1.276203446753E+00  1.283860667433E+00
  1.291563831438E+00  1.299313214426E+00  1.307109093713E+00  1.314951748275E+00
  1.322841458765E+00  1.330778507518E+00  1.338763178563E+00  1.346795757634E+00
  1.354876532180E+00  1.363005791373E+00  1.371183826121E+00  1.379410929078E+00
  1.387687394652E+00  1.396013519020E+00  1.404389600134E+00  1.412815937735E+00
  1.421292833362E+00  1.429820590362E+00  1.438399513904E+00  1.447029910987E+00
  1.455712090453E+00  1.464446362996E+00  1.473233041174E+00  1.482072439421E+00
  1.490964874058E+00  1.499910663302E+00  1.508910127282E+00  1.517963588045E+00
  1.527071369574E+00  1.536233797791E+00  1.545451200578E+00  1.554723907781E+00
  1.564052251228E+00  1.573436564735E+00  1.582877184124E+00  1.592374447229E+00
  1.601928693912E+00  1.611540266075E+00  1.621209507672E+00  1.630936764718E+00
  1.640722385306E+00  1.650566719618E+00  1.660470119936E+00  1.670432940655E+00
  1.680455538299E+00  1.690538271529E+00  1.700681501158E+00  1.710885590165E+00
  1.721150903706E+00  1.731477809128E+00  1.741866675983E+00  1.752317876039E+00
  1.762831783295E+00  1.773408773995E+00  1.784049226639E+00  1.794753521999E+00
  1.805522043131E+00  1.816355175390E+00  1.827253306442E+00  1.838216826281E+00
  1.849246127238E+00  1.860341604002E+00  1.871503653626E+00  1.882732675548E+00
  1.894029071601E+00  1.905393246030E+00  1.916825605507E+00  1.928326559140E+00
  1.939896518494E+00  1.951535897605E+00  1.963245112991E+00  1.975024583669E+00
  1.986874731171E+00  1.998795979558E+00  2.010788755435E+00  2.022853487968E+00
  2.034990608896E+00  2.047200552549E+00  2.059483755865E+00  2.071840658400E+00
  2.084271702350E+00  2.096777332564E+00  2.109357996560E+00  2.122014144539E+00
  2.134746229406E+00  2.147554706783E+00  2.160440035023E+00  2.173402675233E+00
  2.186443091285E+00  2.199561749833E+00  2.212759120332E+00  2.226035675054E+00
  2.239391889104E+00  2.252828240438E+00  2.266345209881E+00  2.279943281140E+00
  2.293622940827E+00  2.307384678472E+00  2.321228986543E+00  2.335156360462E+00
  2.349167298625E+00  2.363262302417E+00  2.377441876231E+00  2.391706527489E+00
  2.406056766654E+00  2.420493107254E+00  2.435016065897E+00  2.449626162292E+00
  2.464323919266E+00  2.479109862782E+00  2.493984521959E+00  2.508948429090E+00
  2.524002119665E+00  2.539146132383E+00  2.554381009177E+00  2.569707295232E+00
  2.585125539004E+00  2.600636292238E+00  2.616240109991E+00  2.631937550651E+00
  2.647729175955E+00  2.663615551011E+00  2.679597244317E+00  2.695674827783E+00
  2.711848876749E+00  2.728119970010E+00  2.744488689830E+00  2.760955621969E+00
  2.777521355701E+00  2.794186483835E+00  2.810951602738E+00  2.827817312354E+00
  2.844784216228E+00  2.861852921526E+00  2.879024039055E+00  2.896298183289E+00
  2.913675972389E+00  2.931158028223E+00  2.948744976393E+00  2.966437446251E+00
  2.984236070928E+00  3.002141487354E+00  3.020154336278E+00  3.038275262296E+00
  3.056504913870E+00  3.074843943353E+00  3.093293007013E+00  3.111852765055E+00
  3.130523881645E+00  3.149307024935E+00  3.168202867085E+00  3.187212084287E+00
  3.206335356793E+00  3.225573368934E+00  3.244926809147E+00  3.264396370002E+00
  3.283982748222E+00  3.303686644712E+00  3.323508764580E+00  3.343449817167E+00
  3.363510516070E+00  3.383691579167E+00  3.403993728642E+00  3.424417691014E+00
  3.444964197160E+00  3.465633982343E+00  3.486427786237E+00  3.507346352954E+00
  3.528390431072E+00  3.549560773658E+00  3.570858138300E+00  3.592283287130E+00
  3.613836986853E+00  3.635520008774E+00  3.657333128827E+00  3.679277127600E+00
  3.701352790365E+00  3.723560907107E+00  3.745902272550E+00  3.768377686185E+00
  3.790987952302E+00  3.813733880016E+00  3.836616283296E+00  3.859635980996E+00
  3.882793796882E+00  3.906090559663E+00  3.929527103021E+00  3.953104265640E+00
  3.976822891233E+00  4.000683828581E+00  4.024687931552E+00  4.048836059142E+00
  4.073129075496E+00  4.097567849949E+00  4.122153257049E+00  4.146886176591E+00
  4.171767493651E+00  4.196798098613E+00  4.221978887205E+00  4.247310760528E+00
  4.272794625091E+00  4.298431392841E+00  4.324221981198E+00  4.350167313086E+00
  4.376268316964E+00  4.402525926866E+00  4.428941082427E+00  4.455514728922E+00
  4.482247817295E+00  4.509141304199E+00  4.536196152024E+00  4.563413328936E+00
  4.590793808910E+00  4.618338571763E+00  4.646048603194E+00  4.673924894813E+00
  4.701968444182E+00  4.730180254847E+00  4.758561336376E+00  4.787112704395E+00
  4.815835380621E+00  4.844730392905E+00  4.873798775262E+00  4.903041567914E+00
  4.932459817321E+00  4.962054576225E+00  4.991826903682E+00  5.021777865104E+00
  5.051908532295E+00  5.082219983489E+00  5.112713303390E+00  5.143389583210E+00
  5.174249920709E+00  5.205295420234E+00  5.236527192755E+00  5.267946355912E+00
  5.299554034047E+00  5.331351358251E+00  5.363339466401E+00  5.395519503199E+00
  5.427892620218E+00  5.460459975940E+00  5.493222735795E+00  5.526182072210E+00
  5.559339164643E+00  5.592695199631E+00  5.626251370829E+00  5.660008879054E+00
  5.693968932328E+00  5.728132745922E+00  5.762501542398E+00  5.797076551652E+00
  5.831859010962E+00  5.866850165028E+00  5.902051266018E+00  5.937463573614E+00
  5.973088355056E+00  6.008926885186E+00  6.044980446497E+00  6.081250329176E+00
  6.117737831151E+00  6.154444258138E+00  6.191370923687E+00  6.228519149229E+00
  6.265890264125E+00  6.303485605709E+00  6.341306519344E+00  6.379354358460E+00
  6.417630484610E+00  6.456136267518E+00  6.494873085123E+00  6.533842323634E+00
  6.573045377576E+00  6.612483649841E+00  6.652158551740E+00  6.692071503051E+00
  6.732223932069E+00  6.772617275661E+00  6.813252979315E+00  6.854132497191E+00
  6.895257292174E+00  6.936628835928E+00  6.978248608943E+00  7.020118100597E+00
  7.062238809200E+00  7.104612242056E+00  7.147239915508E+00  7.190123355001E+00
  7.233264095131E+00  7.276663679702E+00  7.320323661780E+00  7.364245603751E+00
  7.408431077373E+00  7.452881663837E+00  7.497598953820E+00  7.542584547543E+00
  7.587840054829E+00  7.633367095157E+00  7.679167297728E+00  7.725242301515E+00
  7.771593755324E+00  7.818223317856E+00  7.865132657763E+00  7.912323453710E+00
  7.959797394432E+00  8.007556178798E+00  8.055601515871E+00  8.103935124966E+00
  8.152558735716E+00  8.201474088131E+00  8.250682932659E+00  8.300187030255E+00
  8.349988152437E+00  8.400088081351E+00  8.450488609840E+00  8.501191541499E+00
  8.552198690748E+00  8.603511882892E+00  8.655132954189E+00  8.707063751915E+00
  8.759306134426E+00  8.811861971233E+00  8.864733143060E+00  8.917921541918E+00
  8.971429071170E+00  9.025257645597E+00  9.079409191470E+00  9.133885646619E+00
  9.188688960499E+00  9.243821094262E+00  9.299284020828E+00  9.355079724952E+00
  9.411210203302E+00  9.467677464522E+00  9.524483529309E+00  9.581630430485E+00
  9.639120213068E+00  9.696954934346E+00  9.755136663952E+00  9.813667483936E+00
  9.872549488840E+00  9.931784785773E+00  9.991375494487E+00  1.005132374745E+01
  1.011163168994E+01  1.017230148008E+01  1.023333528896E+01  1.029473530069E+01
  1.035650371250E+01  1.041864273477E+01  1.048115459118E+01  1.054404151873E+01
  1.060730576784E+01  1.067094960245E+01  1.073497530006E+01  1.079938515186E+01
  1.086418146277E+01  1.092936655155E+01  1.099494275086E+01  1.106091240736E+01
  1.112727788181E+01  1.119404154910E+01  1.126120579839E+01  1.132877303318E+01
  1.139674567138E+01  1.146512614541E+01  1.153391690228E+01  1.160312040370E+01
  1.167273912612E+01  1.174277556088E+01  1.181323221424E+01  1.188411160753E+01
  1.195541627717E+01  1.202714877484E+01  1.209931166748E+01  1.217190753749E+01
  1.224493898271E+01  1.231840861661E+01  1.239231906831E+01  1.246667298272E+01
  1.254147302062E+01  1.261672185874E+01  1.269242218989E+01  1.276857672303E+01
  1.284518818337E+01  1.292225931247E+01  1.299979286835E+01  1.307779162556E+01
  1.315625837531E+01  1.323519592556E+01  1.331460710111E+01  1.339449474372E+01
  1.347486171218E+01  1.355571088246E+01  1.363704514775E+01  1.371886741864E+01
  1.380118062315E+01  1.388398770689E+01  1.396729163313E+01  1.405109538293E+01
  1.413540195523E+01  1.422021436696E+01  1.430553565316E+01  1.439136886708E+01
  1.447771708028E+01  1.456458338276E+01  1.465197088306E+01  1.473988270836E+01
  1.482832200461E+01  1.491729193664E+01  1.500679568825E+01  1.509683646238E+01
  1.518741748116E+01  1.527854198605E+01  1.537021323796E+01  1.546243451739E+01
  1.555520912449E+01  1.564854037924E+01  1.574243162152E+01  1.583688621125E+01
  1.593190752851E+01  1.602749897368E+01  1.612366396753E+01  1.622040595133E+01
  1.631772838704E+01  1.641563475736E+01  1.651412856591E+01  1.661321333730E+01
  1.671289261732E+01  1.681316997303E+01  1.691404899287E+01  1.701553328682E+01
  1.711762648655E+01  1.722033224546E+01  1.732365423894E+01  1.742759616437E+01
  1.753216174136E+01  1.763735471181E+01  1.774317884008E+01  1.784963791312E+01
  1.795673574060E+01  1.806447615504E+01  1.817286301197E+01  1.828190019004E+01
  1.839159159118E+01  1.850194114073E+01  1.861295278757E+01  1.872463050430E+01
  1.883697828732E+01  1.895000015705E+01  1.906370015799E+01  1.917808235894E+01
  1.929315085309E+01  1.940890975821E+01  1.952536321676E+01  1.964251539606E+01
  1.976037048844E+01  1.987893271137E+01  1.999820630764E+01  2.011819554548E+01
  2.023890471875E+01  2.036033814707E+01  2.048250017595E+01  2.060539517700E+01
  2.072902754807E+01  2.085340171335E+01  2.097852212364E+01  2.110439325638E+01
  2.123101961592E+01  2.135840573361E+01  2.148655616801E+01  2.161547550502E+01
  2.174516835805E+01  2.187563936820E+01  2.200689320441E+01  2.213893456363E+01
  2.227176817102E+01  2.240539878004E+01  2.253983117272E+01  2.267507015976E+01
  2.281112058072E+01  2.294798730420E+01  2.308567522803E+01  2.322418927940E+01
  2.336353441507E+01  2.350371562156E+01  2.364473791529E+01  2.378660634278E+01
  2.392932598084E+01  2.407290193672E+01  2.421733934835E+01  2.436264338444E+01
  2.450881924474E+01  2.465587216021E+01  2.480380739317E+01  2.495263023753E+01
  2.510234601896E+01  2.525296009507E+01  2.540447785564E+01  2.555690472277E+01
  2.571024615111E+01  2.586450762802E+01  2.601969467379E+01  2.617581284183E+01
  2.633286771888E+01  2.649086492519E+01  2.664981011474E+01  2.680970897543E+01
  2.697056722928E+01  2.713239063266E+01  2.729518497646E+01  2.745895608631E+01
  2.762370982283E+01  2.778945208177E+01  2.795618879426E+01  2.812392592703E+01
  2.829266948259E+01  2.846242549948E+01  2.863320005248E+01  2.880499925280E+01
  2.897782924831E+01  2.915169622380E+01  2.932660640114E+01  2.950256603955E+01
  2.967958143579E+01  2.985765892440E+01  3.003680487795E+01  3.021702570722E+01
  3.039832786146E+01  3.058071782863E+01  3.076420213560E+01  3.094878734842E+01
  3.113448007251E+01  3.132128695294E+01  3.150921467466E+01  3.169826996271E+01
  3.188845958248E+01  3.207979033998E+01  3.227226908202E+01  3.246590269651E+01
  3.266069811269E+01  3.285666230136E+01  3.305380227517E+01  3.325212508882E+01
  3.345163783936E+01  3.365234766639E+01  3.385426175239E+01  3.405738732291E+01
  3.426173164684E+01  3.446730203672E+01  3.467410584894E+01  3.488215048404E+01
  3.509144338694E+01  3.530199204726E+01  3.551380399955E+01  3.572688682354E+01
  3.594124814449E+01  3.615689563335E+01  3.637383700715E+01  3.659208002920E+01
  3.681163250937E+01  3.703250230443E+01  3.725469731825E+01  3.747822550216E+01
  3.770309485518E+01  3.792931342431E+01  3.815688930485E+01  3.838583064068E+01
  3.861614562453E+01  3.884784249827E+01  3.908092955326E+01  3.931541513058E+01
  3.955130762137E+01  3.978861546709E+01  4.002734715990E+01  4.026751124286E+01
  4.050911631031E+01  4.075217100818E+01  4.099668403422E+01  4.124266413843E+01
  4.149012012326E+01  4.173906084400E+01  4.198949520906E+01  4.224143218032E+01
  4.249488077340E+01  4.274985005804E+01  4.300634915839E+01  4.326438725334E+01
  4.352397357686E+01  4.378511741832E+01  4.404782812283E+01  4.431211509157E+01
  4.457798778212E+01
</grid-data>
</grid>
<valence-charge total-charge="26" is-unscreening-charge="yes"
 rescaled-to-z-pseudo="no">
<radfunc>
<data npts="797">
  1.316948468428E+01  1.317443892410E+01  1.318932997384E+01  1.321424543286E+01
  1.324895122645E+01  1.329464703578E+01  1.335076689065E+01  1.341678361062E+01
  1.349491563358E+01  1.358260217997E+01  1.368146869476E+01  1.378894836441E+01
  1.390999327909E+01  1.404406644211E+01  1.419002495853E+01  1.434607433012E+01
  1.450975756936E+01  1.467798511656E+01  1.486701670928E+01  1.505698164013E+01
  1.526780783750E+01  1.547448939587E+01  1.570105765497E+01  1.594932213647E+01
  1.618588101317E+01  1.644194053636E+01  1.671898676887E+01  1.701859465536E+01
  1.729461748046E+01  1.758953621364E+01  1.790449563733E+01  1.824068393217E+01
  1.859932921478E+01  1.891626539894E+01  1.925042016088E+01  1.960255089818E+01
  1.997342177368E+01  2.036379894567E+01  2.077444485733E+01  2.120611145607E+01
  2.156707336661E+01  2.194232164347E+01  2.233220458488E+01  2.273705165131E+01
  2.315716903085E+01  2.359283468261E+01  2.404429281505E+01  2.451174775526E+01
  2.499535716470E+01  2.549522455734E+01  2.601139107760E+01  2.654382649791E+01
  2.695376585195E+01  2.737271528086E+01  2.780056263986E+01  2.823716116245E+01
  2.868232643610E+01  2.913583322195E+01  2.959741212134E+01  3.006674609407E+01
  3.054346683576E+01  3.102715102438E+01  3.151731644936E+01  3.201341803990E+01
  3.251484381361E+01  3.302091077055E+01  3.353086076306E+01  3.404385637694E+01
  3.455897686542E+01  3.507521418388E+01  3.559146917977E+01  3.610654799951E+01
  3.661915878169E+01  3.712790871346E+01  3.763130153513E+01  3.796313401551E+01
  3.829137502363E+01  3.861550249045E+01  3.893497313972E+01  3.924922254638E+01
  3.955766528161E+01  3.985969515165E+01  4.015468553815E+01  4.044198984754E+01
  4.072094207718E+01  4.099085750617E+01  4.125103351830E+01  4.150075056502E+01
  4.173927327559E+01  4.196585172178E+01  4.217972284379E+01  4.238011204380E+01
  4.256623495294E+01  4.273729937671E+01  4.289250742336E+01  4.303105781842E+01
  4.315214840799E+01  4.325497885182E+01  4.333875350614E+01  4.340268449474E+01
  4.344599496512E+01  4.346792252490E+01  4.346772285176E+01  4.344467346836E+01
  4.339807767139E+01  4.332726860181E+01  4.323161344116E+01  4.311051771615E+01
  4.296342969159E+01  4.278984482905E+01  4.258931028612E+01  4.236142942883E+01
  4.210586632692E+01  4.182235019956E+01  4.151067977651E+01  4.117072753772E+01
  4.080244379184E+01  4.040586055274E+01  3.998109517091E+01  3.952835367568E+01
  3.904793378258E+01  3.854022751970E+01  3.800572342648E+01  3.744500827818E+01
  3.685876828999E+01  3.624778975568E+01  3.561295907728E+01  3.495526214460E+01
  3.427578302606E+01  3.357570193622E+01  3.285629244955E+01  3.211891793518E+01
  3.174394334153E+01  3.136502719372E+01  3.098236309170E+01  3.059614928364E+01
  3.020658845968E+01  2.981388753320E+01  2.941825740949E+01  2.901991274222E+01
  2.861907167782E+01  2.821595558797E+01  2.781078879067E+01  2.740379826006E+01
  2.699521332559E+01  2.658526536074E+01  2.617418746210E+01  2.576221411912E+01
  2.534958087525E+01  2.493652398114E+01  2.452328004057E+01  2.411008564998E+01
  2.369717703228E+01  2.328478966598E+01  2.287315791041E+01  2.246251462823E+01
  2.205309080595E+01  2.164511517388E+01  2.123881382638E+01  2.083440984368E+01
  2.043212291641E+01  2.003216897415E+01  1.963475981917E+01  1.924010276670E+01
  1.884840029296E+01  1.845984969232E+01  1.807464274486E+01  1.769296539566E+01
  1.731499744706E+01  1.694091226522E+01  1.657087650219E+01  1.620504983472E+01
  1.584358472096E+01  1.548662617611E+01  1.513431156821E+01  1.478677043482E+01
  1.444412432169E+01  1.410648664406E+01  1.377396257139E+01  1.344664893601E+01
  1.312463416626E+01  1.280799824441E+01  1.249681268952E+01  1.219114056542E+01
  1.189103651371E+01  1.159654681154E+01  1.130770945379E+01  1.102455425924E+01
  1.074710299993E+01  1.047536955310E+01  1.020936007444E+01  9.949073191942E+00
  9.694500218764E+00  9.445625383973E+00  9.202426079578E+00  8.964873122289E+00
  8.732931028302E+00  8.506558299342E+00  8.285707718109E+00  8.070326651247E+00
  7.860357357882E+00  7.655737301809E+00  7.456399465362E+00  7.262272663057E+00
  7.073281853136E+00  6.889348445196E+00  6.710390602189E+00  6.536323535161E+00
  6.367059789257E+00  6.202509519607E+00  6.042580755757E+00  5.887179652821E+00
  5.736210728256E+00  5.589577086987E+00  5.447180635471E+00  5.308922279769E+00
  5.174702109417E+00  5.044419566984E+00  4.917973603839E+00  4.795262876473E+00
  4.676186150830E+00  4.560642840826E+00  4.448533125697E+00  4.339758055323E+00
  4.234219650485E+00  4.131820994486E+00  4.032466317648E+00  3.936061078011E+00
  3.842512038386E+00  3.751727341046E+00  3.663616581096E+00  3.578090912744E+00
  3.495063287257E+00  3.414448754841E+00  3.336164488813E+00  3.260129793591E+00
  3.186266117434E+00  3.114497056384E+00  3.044748354695E+00  2.976947901217E+00
  2.911025722012E+00  2.846913969410E+00  2.784546907731E+00  2.723860895859E+00
  2.664794366881E+00  2.607287804979E+00  2.551283719774E+00  2.496726618305E+00
  2.443562974820E+00  2.391741198574E+00  2.341211599784E+00  2.291926353929E+00
  2.243839464545E+00  2.196906724681E+00  2.151085677167E+00  2.106335573839E+00
  2.062617333870E+00  2.019893501330E+00  1.978128202133E+00  1.937287100463E+00
  1.897337354829E+00  1.858247573847E+00  1.819987771864E+00  1.782529324528E+00
  1.745844924395E+00  1.709908536677E+00  1.674695355207E+00  1.640181758711E+00
  1.606345267449E+00  1.573164500316E+00  1.540619132449E+00  1.508689853411E+00
  1.477358326003E+00  1.446607145759E+00  1.416419801164E+00  1.386780634641E+00
  1.357674804341E+00  1.329088246775E+00  1.301007640308E+00  1.273420369548E+00
  1.246314490650E+00  1.219678697551E+00  1.193502289153E+00  1.167775137468E+00
  1.142487656731E+00  1.117630773487E+00  1.093195897659E+00  1.069174894597E+00
  1.045560058108E+00  1.022344084463E+00  9.995200473679E-01  9.770813739153E-01
  9.550218214777E-01  9.333354555555E-01  9.120166285569E-01  8.910599594991E-01
  8.704603146173E-01  8.502127888655E-01  8.303126882916E-01  8.107555132714E-01
  7.915369425811E-01  7.726528182908E-01  7.540991314716E-01  7.358720086304E-01
  7.179676989841E-01  7.003825624191E-01  6.831130581804E-01  6.661557342564E-01
  6.495072174370E-01  6.331642040218E-01  6.171234511574E-01  6.013817687812E-01
  5.859360121489E-01  5.707830749233E-01  5.559198828041E-01  5.413433876738E-01
  5.270505622409E-01  5.130383951568E-01  4.993038865861E-01  4.858440442090E-01
  4.726558796358E-01  4.597364052124E-01  4.470826311972E-01  4.346915632909E-01
  4.225602004986E-01  4.106855333071E-01  3.990645421576E-01  3.876941961990E-01
  3.765714523011E-01  3.656932543140E-01  3.550565325562E-01  3.446582035160E-01
  3.344951697515E-01  3.245643199742E-01  3.148625293022E-01  3.053866596704E-01
  2.961335603833E-01  2.871000687991E-01  2.782830111333E-01  2.696792033690E-01
  2.612854522651E-01  2.530985564505E-01  2.451153075947E-01  2.373324916465E-01
  2.297468901307E-01  2.223552815324E-01  2.151544425726E-01  2.081411497468E-01
  2.013121807388E-01  1.946643158924E-01  1.881943397006E-01  1.818990423021E-01
  1.757752209830E-01  1.698196816768E-01  1.640292404595E-01  1.584007250341E-01
  1.529309762020E-01  1.476168493161E-01  1.424552157144E-01  1.374429641289E-01
  1.325770020682E-01  1.278542571716E-01  1.232716785318E-01  1.188262379835E-01
  1.145149313583E-01  1.103347797019E-01  1.062828304533E-01  1.023561585849E-01
  9.855186770155E-02  9.486709109812E-02  9.129899277497E-02  8.784476840975E-02
  8.450164628565E-02  8.126688817520E-02  7.813779017932E-02  7.511168352117E-02
  7.218593529458E-02  6.935794916691E-02  6.662516603608E-02  6.398506464186E-02
  6.143516213126E-02  5.897301457829E-02  5.659621745799E-02  5.430240607506E-02
  5.208925594734E-02  4.995448314435E-02  4.789584458130E-02  4.591113826903E-02
  4.399820352031E-02  4.215492111304E-02  4.037921341102E-02  3.866904444283E-02
  3.702241993968E-02  3.543738733292E-02  3.391203571211E-02  3.244449574449E-02
  3.103293955688E-02  2.967558058098E-02  2.837067336316E-02  2.711651333985E-02
  2.591143657969E-02  2.475381949370E-02  2.364207851466E-02  2.257466974706E-02
  2.155008858889E-02  2.056686932667E-02  1.962358470509E-02  1.871884547265E-02
  1.785129990476E-02  1.701963330563E-02  1.622256749058E-02  1.545886025001E-02
  1.472730479652E-02  1.402672919672E-02  1.335599578904E-02  1.271400058891E-02
  1.209967268282E-02  1.151197361252E-02  1.094989675073E-02  1.041246666961E-02
  9.898738503343E-03  9.407797306015E-03  8.938757405930E-03  8.490761757611E-03
  8.062981292522E-03  7.654614269594E-03  7.264885626560E-03  6.893046333086E-03
  6.538372746581E-03  6.200165971586E-03  5.877751223537E-03  5.570477197675E-03
  5.277715443825E-03  4.998859747701E-03  4.733325519355E-03  4.480549189345E-03
  4.239987613124E-03  4.011117484137E-03  3.793434756044E-03  3.586454074439E-03
  3.389708218415E-03  3.202747552252E-03  3.025139487496E-03  2.856467955620E-03
  2.696332891461E-03  2.544349727557E-03  2.400148899497E-03  2.263375362350E-03
  2.133688118226E-03  2.010759754966E-03  1.894275995969E-03  1.783935261101E-03
  1.679448238653E-03  1.580537468231E-03  1.486936934529E-03  1.398391671832E-03
  1.314657379140E-03  1.235500045775E-03  1.160695587305E-03  1.090029491636E-03
  1.023296475099E-03  9.603001483491E-04  9.008526919004E-04  8.447745411118E-04
  7.918940804261E-04  7.420473466773E-04  6.950777412698E-04  6.508357510359E-04
  6.091786775795E-04  5.699703749117E-04  5.330809951884E-04  4.983867423610E-04
  4.657696335527E-04  4.351172679770E-04  4.063226032168E-04  3.792837386876E-04
  3.539037061076E-04  3.300902668059E-04  3.077557156996E-04  2.868166917754E-04
  2.671939949157E-04  2.488124089095E-04  2.316005304961E-04  2.154906042884E-04
  2.004183634289E-04  1.863228758327E-04  1.731463958753E-04  1.608342213863E-04
  1.493345558105E-04  1.385983754042E-04  1.285793013331E-04  1.192334765422E-04
  1.105194472707E-04  1.023980490868E-04  9.483229731729E-05  8.778728175223E-05
  8.123006550390E-05  7.512958790259E-05  6.945657131287E-05  6.418343175615E-05
  5.928419322659E-05  5.473440558940E-05  5.051106595213E-05  4.659254340108E-05
  4.295850699687E-05  3.958985692455E-05  3.646865869561E-05  3.357808030060E-05
  3.090233221316E-05  2.842661014764E-05  2.613704047437E-05  2.402062819856E-05
  2.206520741033E-05  2.025939411542E-05  1.859254135795E-05  1.705469654832E-05
  1.563656091157E-05  1.432945097303E-05  1.312526200048E-05  1.201643332362E-05
  1.099591545394E-05  1.005713892990E-05  9.193984814335E-06  8.400756773181E-06
  7.672154666470E-06  7.003249584606E-06  6.389460265017E-06  5.826530826208E-06
  5.310509758307E-06  4.837730111150E-06  4.404790822949E-06  4.008539134538E-06
  3.646054036138E-06  3.314630695487E-06  3.011765818079E-06  2.735143892123E-06
  2.482624272640E-06  2.252229060937E-06  2.042131737452E-06  1.850646507683E-06
  1.676218322615E-06  1.517413536697E-06  1.372911168030E-06  1.241494727010E-06
  1.122044581165E-06  1.013530825440E-06  9.150066285846E-07  8.256020277352E-07
  7.445181445838E-07  6.710217978731E-07  6.044404881892E-07  5.441577322535E-07
  4.896087250807E-07  4.402763094997E-07  3.956872336203E-07  3.554086778666E-07
  3.190450342026E-07  2.862349211296E-07  2.566484189563E-07  2.299845107166E-07
  2.059687149544E-07  1.843508973890E-07  1.649032492447E-07  1.474184207533E-07
  1.317077990290E-07  1.175999201804E-07  1.049390061422E-07  9.358361731126E-08
  8.340541262840E-08  7.428800928708E-08  6.612593475085E-08  5.882366424208E-08