Rn    ONCVPSP-4.0.1  r_core=   2.40606   2.10936   2.86185   2.10936
86.0000      8.0000      220131    zatom,zion,pspd
8      11   3     4   600     0    pspcod,pspxc,lmax,lloc,mmax,r2well
5.99000000  8.00000000  0.00000000    rchrg fchrg qchrg
2     2     2     2     0    nproj
1     1           extension_switch
0                         6.2580800203974E+00  7.0704425071179E-01
1  0.0000000000000E+00 -6.2391203314860E-12  1.7957434150784E-11
2  1.0000000000000E-02  2.4714296828358E-02 -7.1801087006256E-03
3  2.0000000000000E-02  4.9415459372969E-02 -1.4338234519834E-02
4  3.0000000000000E-02  7.4090389730316E-02 -2.1452516619179E-02
5  4.0000000000000E-02  9.8726062497251E-02 -2.8501337450785E-02
6  5.0000000000000E-02  1.2330956037254E-01 -3.5463442418754E-02
7  6.0000000000000E-02  1.4782810898445E-01 -4.2318057172670E-02
8  7.0000000000000E-02  1.7226911069385E-01 -4.9045001765120E-02
9  8.0000000000000E-02  1.9662017712838E-01 -5.5624800923114E-02
10  9.0000000000000E-02  2.2086916021118E-01 -6.2038789705742E-02
11  1.0000000000000E-01  2.4500418145696E-01 -6.8269213846917E-02
12  1.1000000000000E-01  2.6901365931853E-01 -7.4299324112771E-02
13  1.2000000000000E-01  2.9288633437943E-01 -8.0113464037859E-02
14  1.3000000000000E-01  3.1661129220111E-01 -8.5697150442766E-02
15  1.4000000000000E-01  3.4017798364813E-01 -9.1037146177508E-02
16  1.5000000000000E-01  3.6357624253020E-01 -9.6121524580593E-02
17  1.6000000000000E-01  3.8679630041689E-01 -1.0093972519180E-01
18  1.7000000000000E-01  4.0982879849849E-01 -1.0548260030823E-01
19  1.8000000000000E-01  4.3266479638536E-01 -1.0974245202687E-01
20  1.9000000000000E-01  4.5529577775714E-01 -1.1371305947321E-01
21  2.0000000000000E-01  4.7771365279391E-01 -1.1738969597382E-01
22  2.1000000000000E-01  4.9991075734167E-01 -1.2076913599050E-01
23  2.2000000000000E-01  5.2187984878589E-01 -1.2384965169529E-01
24  2.3000000000000E-01  5.4361409862836E-01 -1.2663099912807E-01
25  2.4000000000000E-01  5.6510708178449E-01 -1.2911439394154E-01
26  2.5000000000000E-01  5.8635276263997E-01 -1.3130247680259E-01
27  2.6000000000000E-01  6.0734547792770E-01 -1.3319926858222E-01
28  2.7000000000000E-01  6.2807991650755E-01 -1.3481011553028E-01
29  2.8000000000000E-01  6.4855109615336E-01 -1.3614162469396E-01
30  2.9000000000000E-01  6.6875433747231E-01 -1.3720158990110E-01
31  3.0000000000000E-01  6.8868523510280E-01 -1.3799890869001E-01
32  3.1000000000000E-01  7.0833962635705E-01 -1.3854349062686E-01
33  3.2000000000000E-01  7.2771355749359E-01 -1.3884615750845E-01
34  3.3000000000000E-01  7.4680324782397E-01 -1.3891853600358E-01
35  3.4000000000000E-01  7.6560505187475E-01 -1.3877294333793E-01
36  3.5000000000000E-01  7.8411541984312E-01 -1.3842226667743E-01
37  3.6000000000000E-01  8.0233085659912E-01 -1.3787983691050E-01
38  3.7000000000000E-01  8.2024787950196E-01 -1.3715929757297E-01
39  3.8000000000000E-01  8.3786297531034E-01 -1.3627446969798E-01
40  3.9000000000000E-01  8.5517255647801E-01 -1.3523921340824E-01
41  4.0000000000000E-01  8.7217291713557E-01 -1.3406728709881E-01
42  4.1000000000000E-01  8.8886018906741E-01 -1.3277220508479E-01
43  4.2000000000000E-01  9.0523029799942E-01 -1.3136709460998E-01
44  4.3000000000000E-01  9.2127892051746E-01 -1.2986455312937E-01
45  4.4000000000000E-01  9.3700144193977E-01 -1.2827650679010E-01
46  4.5000000000000E-01  9.5239291546760E-01 -1.2661407104296E-01
47  4.6000000000000E-01  9.6744802293725E-01 -1.2488741431697E-01
48  4.7000000000000E-01  9.8216103749455E-01 -1.2310562568722E-01
49  4.8000000000000E-01  9.9652578850802E-01 -1.2127658745651E-01
50  4.9000000000000E-01  1.0105356290304E+00 -1.1940685355719E-01
51  5.0000000000000E-01  1.0241834061105E+00 -1.1750153466045E-01
52  5.1000000000000E-01  1.0374614342463E+00 -1.1556419085522E-01
53  5.2000000000000E-01  1.0503614722588E+00 -1.1359673272859E-01
54  5.3000000000000E-01  1.0628747038525E+00 -1.1159933164570E-01
55  5.4000000000000E-01  1.0749917221118E+00 -1.0957033998514E-01
56  5.5000000000000E-01  1.0867025181666E+00 -1.0750622204298E-01
57  5.6000000000000E-01  1.0979964742395E+00 -1.0540149626740E-01
58  5.7000000000000E-01  1.1088623612699E+00 -1.0324868943253E-01
59  5.8000000000000E-01  1.1192883412831E+00 -1.0103830330184E-01
60  5.9000000000000E-01  1.1292619746552E+00 -9.8758794268986E-02
61  6.0000000000000E-01  1.1387702323941E+00 -9.6396566398016E-02
62  6.1000000000000E-01  1.1477995135353E+00 -9.3935978215389E-02
63  6.2000000000000E-01  1.1563356677230E+00 -9.1359363534321E-02
64  6.3000000000000E-01  1.1643640230164E+00 -8.8647066515957E-02
65  6.4000000000000E-01  1.1718694189386E+00 -8.5777491095101E-02
66  6.5000000000000E-01  1.1788362447491E+00 -8.2727164818139E-02
67  6.6000000000000E-01  1.1852484828968E+00 -7.9470817060043E-02
68  6.7000000000000E-01  1.1910897575764E+00 -7.5981471504867E-02
69  6.8000000000000E-01  1.1963433882839E+00 -7.2230552691159E-02
70  6.9000000000000E-01  1.2009924482327E+00 -6.8188006340370E-02
71  7.0000000000000E-01  1.2050198274661E+00 -6.3822433103248E-02
72  7.1000000000000E-01  1.2084083004678E+00 -5.9101235276294E-02
73  7.2000000000000E-01  1.2111405980451E+00 -5.3990775959376E-02
74  7.3000000000000E-01  1.2131994832295E+00 -4.8456550044544E-02
75  7.4000000000000E-01  1.2145678309111E+00 -4.2463366349248E-02
76  7.5000000000000E-01  1.2152287108977E+00 -3.5975540130232E-02
77  7.6000000000000E-01  1.2151654740598E+00 -2.8957095142145E-02
78  7.7000000000000E-01  1.2143618412024E+00 -2.1371974335612E-02
79  7.8000000000000E-01  1.2128019942778E+00 -1.3184258222513E-02
80  7.9000000000000E-01  1.2104706695320E+00 -4.3583898758470E-03
81  8.0000000000000E-01  1.2073532521603E+00  5.1405945265405E-03
82  8.1000000000000E-01  1.2034358720241E+00  1.5346830757369E-02
83  8.2000000000000E-01  1.1987054999701E+00  2.6293388383885E-02
84  8.3000000000000E-01  1.1931500442751E+00  3.8012030632141E-02
85  8.4000000000000E-01  1.1867584467296E+00  5.0532973538135E-02
86  8.5000000000000E-01  1.1795207778619E+00  6.3884645682100E-02
87  8.6000000000000E-01  1.1714283308004E+00  7.8093449824968E-02
88  8.7000000000000E-01  1.1624737132630E+00  9.3183527782398E-02
89  8.8000000000000E-01  1.1526509371637E+00  1.0917652988068E-01
90  8.9000000000000E-01  1.1419555053242E+00  1.2609139034173E-01
91  9.0000000000000E-01  1.1303844947841E+00  1.4394410993891E-01
92  9.1000000000000E-01  1.1179366362071E+00  1.6274754725353E-01
93  9.2000000000000E-01  1.1046123888888E+00  1.8251121984273E-01
94  9.3000000000000E-01  1.0904140108857E+00  2.0324111660203E-01
95  9.4000000000000E-01  1.0753456237950E+00  2.2493952257246E-01
96  9.5000000000000E-01  1.0594132717340E+00  2.4760485740056E-01
97  9.6000000000000E-01  1.0426249740875E+00  2.7123152861100E-01
98  9.7000000000000E-01  1.0249907716096E+00  2.9580980079693E-01
99  9.8000000000000E-01  1.0065227654964E+00  3.2132568176987E-01
100  9.9000000000000E-01  9.8723514906689E-01  3.4776082664332E-01
101  1.0000000000000E+00  9.6714423172290E-01  3.7509246074861E-01
102  1.0100000000000E+00  9.4626845488675E-01  4.0329332220067E-01
103  1.0200000000000E+00  9.2462839965159E-01  4.3233162484469E-01
104  1.0300000000000E+00  9.0224678591207E-01  4.6217104222247E-01
105  1.0400000000000E+00  8.7914846278160E-01  4.9277071310078E-01
106  1.0500000000000E+00  8.5536039014047E-01  5.2408526900227E-01
107  1.0600000000000E+00  8.3091161119946E-01  5.5606488407437E-01
108  1.0700000000000E+00  8.0583321600466E-01  5.8865534752284E-01
109  1.0800000000000E+00  7.8015829585210E-01  6.2179815872485E-01
110  1.0900000000000E+00  7.5392188862380E-01  6.5543064502195E-01
111  1.1000000000000E+00  7.2716091510072E-01  6.8948610207822E-01
112  1.1100000000000E+00  6.9991410635310E-01  7.2389395657035E-01
113  1.1200000000000E+00  6.7222192235261E-01  7.5857995085942E-01
114  1.1300000000000E+00  6.4412646199592E-01  7.9346634917600E-01
115  1.1400000000000E+00  6.1567136477346E-01  8.2847216473235E-01
116  1.1500000000000E+00  5.8690170436102E-01  8.6351340706009E-01
117  1.1600000000000E+00  5.5786387445546E-01  8.9850334875642E-01
118  1.1700000000000E+00  5.2860546721738E-01  9.3335281071141E-01
119  1.1800000000000E+00  4.9917514472570E-01  9.6797046477841E-01
120  1.1900000000000E+00  4.6962250388771E-01  1.0022631527466E+00
121  1.2000000000000E+00  4.3999793528743E-01  1.0361362203722E+00
122  1.2100000000000E+00  4.1035247649035E-01  1.0694938651296E+00
123  1.2200000000000E+00  3.8073766035749E-01  1.1022394962551E+00
124  1.2300000000000E+00  3.5120535895345E-01  1.1342761055676E+00
125  1.2400000000000E+00  3.2180762366262E-01  1.1655066474784E+00
126  1.2500000000000E+00  2.9259652215466E-01  1.1958344265257E+00
127  1.2600000000000E+00  2.6362397286425E-01  1.2251634907115E+00
128  1.2700000000000E+00  2.3494157767138E-01  1.2533990288608E+00
129  1.2800000000000E+00  2.0660045348642E-01  1.2804477701751E+00
130  1.2900000000000E+00  1.7865106345865E-01  1.3062183841176E+00
131  1.3000000000000E+00  1.5114304853855E-01  1.3306218787367E+00
132  1.3100000000000E+00  1.2412506013202E-01  1.3535719955118E+00
133  1.3200000000000E+00  9.7644594588710E-02  1.3749855988019E+00
134  1.3300000000000E+00  7.1747830267783E-02  1.3947830579705E+00
135  1.3400000000000E+00  4.6479467921114E-02  1.4128886202726E+00
136  1.3500000000000E+00  2.1882575127369E-02  1.4292307726097E+00
137  1.3600000000000E+00 -2.0015644998106E-03  1.4437425902854E+00
138  1.3700000000000E+00 -2.5133596620569E-02  1.4563620709354E+00
139  1.3800000000000E+00 -4.7476235303291E-02  1.4670324518533E+00
140  1.3900000000000E+00 -6.8994395314598E-02  1.4757025089930E+00
141  1.4000000000000E+00 -8.9655316920025E-02  1.4823268359955E+00
142  1.4100000000000E+00 -1.0942868257849E-01  1.4868661016665E+00
143  1.4200000000000E+00 -1.2828672494564E-01  1.4892872844161E+00
144  1.4300000000000E+00 -1.4620432563596E-01  1.4895638822683E+00
145  1.4400000000000E+00 -1.6315910423146E-01  1.4876760971479E+00
146  1.4500000000000E+00 -1.7913149706606E-01  1.4836109922682E+00
147  1.4600000000000E+00 -1.9410482535781E-01  1.4773626215551E+00
148  1.4700000000000E+00 -2.0806535230800E-01  1.4689321301732E+00
149  1.4800000000000E+00 -2.2100232883415E-01  1.4583278253457E+00
150  1.4900000000000E+00 -2.3290802765500E-01  1.4455652168007E+00
151  1.5000000000000E+00 -2.4377776549782E-01  1.4306670263143E+00
152  1.5100000000000E+00 -2.5360991325243E-01  1.4136631659681E+00
153  1.5200000000000E+00 -2.6240589395230E-01  1.3945906848880E+00
154  1.5300000000000E+00 -2.7017016851881E-01  1.3734936843810E+00
155  1.5400000000000E+00 -2.7691020926307E-01  1.3504232015427E+00
156  1.5500000000000E+00 -2.8263646119674E-01  1.3254370615619E+00
157  1.5600000000000E+00 -2.8736229126192E-01  1.2985996991033E+00
158  1.5700000000000E+00 -2.9110392564804E-01  1.2699819493066E+00
159  1.5800000000000E+00 -2.9388037542112E-01  1.2396608090907E+00
160  1.5900000000000E+00 -2.9571335074819E-01  1.2077191696062E+00
161  1.6000000000000E+00 -2.9662716405522E-01  1.1742455208277E+00
162  1.6100000000000E+00 -2.9664862251196E-01  1.1393336294203E+00
163  1.6200000000000E+00 -2.9580691029025E-01  1.1030821911600E+00
164  1.6300000000000E+00 -2.9413346109353E-01  1.0655944593184E+00
165  1.6400000000000E+00 -2.9166182150480E-01  1.0269778505566E+00
166  1.6500000000000E+00 -2.8842750574702E-01  9.8734352999180E-01
167  1.6600000000000E+00 -2.8446784249420E-01  9.4680597722089E-01
168  1.6700000000000E+00 -2.7982181441271E-01  9.0548253518792E-01
169  1.6800000000000E+00 -2.7452989115088E-01  8.6349294388620E-01
170  1.6900000000000E+00 -2.6863385652940E-01  8.2095886097257E-01
171  1.7000000000000E+00 -2.6217663071699E-01  7.7800337145395E-01
172  1.7100000000000E+00 -2.5520208820302E-01  7.3475048867458E-01
173  1.7200000000000E+00 -2.4775487240289E-01  6.9132464889370E-01
174  1.7300000000000E+00 -2.3988020775158E-01  6.4785020179015E-01
175  1.7400000000000E+00 -2.3162371015658E-01  6.0445089926899E-01
176  1.7500000000000E+00 -2.2303119669280E-01  5.6124938496984E-01
177  1.7600000000000E+00 -2.1414849542901E-01  5.1836668689066E-01
178  1.7700000000000E+00 -2.0502125627829E-01  4.7592171554260E-01
179  1.7800000000000E+00 -1.9569476376311E-01  4.3403077004093E-01
180  1.7900000000000E+00 -1.8621375257952E-01  3.9280705451493E-01
181  1.8000000000000E+00 -1.7662222683453E-01  3.5236020718527E-01
182  1.8100000000000E+00 -1.6696328381551E-01  3.1279584441088E-01
183  1.8200000000000E+00 -1.5727894313166E-01  2.7421512194947E-01
184  1.8300000000000E+00 -1.4760998204347E-01  2.3671431560638E-01
185  1.8400000000000E+00 -1.3799577776903E-01  2.0038442336542E-01
186  1.8500000000000E+00 -1.2847415752409E-01  1.6531079100442E-01
187  1.8600000000000E+00 -1.1908125701719E-01  1.3157276309526E-01
188  1.8700000000000E+00 -1.0985138808218E-01  9.9243361177133E-02
189  1.8800000000000E+00 -1.0081691608752E-01  6.8388990769783E-02
190  1.8900000000000E+00 -9.2008147716078E-02  3.9069178764352E-02
191  1.9000000000000E+00 -8.3453229659617E-02  1.1336342589465E-02
192  1.9100000000000E+00 -7.5178058720481E-02 -1.4764407594259E-02
193  1.9200000000000E+00 -6.7206203758639E-02 -3.9195432571347E-02
194  1.9300000000000E+00 -5.9558839865303E-02 -6.1926692678902E-02
195  1.9400000000000E+00 -5.2254695085667E-02 -8.2935840566930E-02
196  1.9500000000000E+00 -4.5310009953025E-02 -1.0220827750187E-01
197  1.9600000000000E+00 -3.8738510033548E-02 -1.1973717277881E-01
198  1.9700000000000E+00 -3.2551391620807E-02 -1.3552344597457E-01
199  1.9800000000000E+00 -2.6757320652016E-02 -1.4957571196012E-01
200  1.9900000000000E+00 -2.1362444856100E-02 -1.6191018876117E-01
201  2.0000000000000E+00 -1.6370419078731E-02 -1.7255056853571E-01
202  2.0100000000000E+00 -1.1782443665730E-02 -1.8152785211252E-01
203  2.0200000000000E+00 -7.5973157221544E-03 -1.8888014771100E-01
204  2.0300000000000E+00 -3.8114930024818E-03 -1.9465243463270E-01
205  2.0400000000000E+00 -4.1917012657270E-04 -1.9889629288154E-01
206  2.0500000000000E+00  2.5876332460084E-03 -2.0166959983931E-01
207  2.0600000000000E+00  5.2189727065435E-03 -2.0303619527586E-01
208  2.0700000000000E+00  7.4868683325006E-03 -2.0306551612751E-01
209  2.0800000000000E+00  9.4051834489345E-03 -2.0183220287834E-01
210  2.0900000000000E+00  1.0989493476082E-02 -1.9941567912534E-01
211  2.1000000000000E+00  1.2256943387486E-02 -1.9589969484351E-01
212  2.1100000000000E+00  1.3226106184370E-02 -1.9137189855331E-01
213  2.1200000000000E+00  1.3916801790889E-02 -1.8592321721248E-01
214  2.1300000000000E+00  1.4349842100932E-02 -1.7964685765186E-01
215  2.1400000000000E+00  1.4546775252258E-02 -1.7263732804226E-01
216  2.1500000000000E+00  1.4529699913235E-02 -1.6498985342351E-01
217  2.1600000000000E+00  1.4321096190067E-02 -1.5679989097518E-01
218  2.1700000000000E+00  1.3943647090988E-02 -1.4816260034377E-01
219  2.1800000000000E+00  1.3420060503427E-02 -1.3917232133647E-01
220  2.1900000000000E+00  1.2772890811262E-02 -1.2992205183607E-01
221  2.2000000000000E+00  1.2024360950168E-02 -1.2050292801549E-01
222  2.2100000000000E+00  1.1196185816335E-02 -1.1100370955498E-01
223  2.2200000000000E+00  1.0309397881411E-02 -1.0151027223829E-01
224  2.2300000000000E+00  9.3841758682810E-03 -9.2105110328726E-02
225  2.2400000000000E+00  8.4396781129392E-03 -8.2866853087842E-02
226  2.2500000000000E+00  7.4938800207718E-03 -7.3869794062113E-02
227  2.2600000000000E+00  6.5633821081682E-03 -6.5183346290911E-02
228  2.2700000000000E+00  5.6633963214460E-03 -5.6871962904592E-02
229  2.2800000000000E+00  4.8073754417567E-03 -4.8994133106862E-02
230  2.2900000000000E+00  4.0059609685955E-03 -4.1599613099141E-02
231  2.3000000000000E+00  3.2642163466970E-03 -3.4722211413002E-02
232  2.3100000000000E+00  2.5896255386036E-03 -2.8400518471255E-02
233  2.3200000000000E+00  1.9908915937969E-03 -2.2674755771639E-02
234  2.3300000000000E+00  1.4732341544187E-03 -1.7574539501523E-02
235  2.3400000000000E+00  1.0393988678135E-03 -1.3121476300701E-02
236  2.3500000000000E+00  6.8940761957739E-04 -9.3284941677416E-03
237  2.3600000000000E+00  4.2053640009983E-04 -6.1997678034657E-03
238  2.3700000000000E+00  2.2727450897443E-04 -3.7317376901396E-03
239  2.3800000000000E+00  1.0117324557680E-04 -1.9037588983584E-03
240  2.3900000000000E+00  3.1279271897057E-05 -7.0367005535724E-04
241  2.4000000000000E+00  4.3789231939227E-06 -1.2479217673525E-04
242  2.4100000000000E+00 -4.7474009218103E-07  2.4229012626534E-05
243  2.4200000000000E+00 -3.1115727154503E-08  1.8105658531086E-06
244  2.43  0. -0.
245  2.44 -0.  0.
246  2.45 -0.  0.
247  2.46 -0.  0.
248  2.47  0.  0.
249  2.48  0.  0.
250  2.49  0.  0.
251  2.50  0.  0.
252  2.51  0.  0.
253  2.52  0.  0.
254  2.53  0.  0.
255  2.54  0.  0.
256  2.55  0.  0.
257  2.56  0.  0.
258  2.57  0.  0.
259  2.58  0.  0.
260  2.59  0.  0.
261  2.60  0.  0.
262  2.61  0.  0.
263  2.62  0.  0.
264  2.63  0.  0.
265  2.64  0.  0.
266  2.65  0.  0.
267  2.66  0.  0.
268  2.67  0.  0.
269  2.68  0.  0.
270  2.69  0.  0.
271  2.70  0.  0.
272  2.71  0.  0.
273  2.72  0.  0.
274  2.73  0.  0.
275  2.74  0.  0.
276  2.75  0.  0.
277  2.76  0.  0.
278  2.77  0.  0.
279  2.78  0.  0.
280  2.79  0.  0.
281  2.80  0.  0.
282  2.81  0.  0.
283  2.82  0.  0.
284  2.83  0.  0.
285  2.84  0.  0.
286  2.85  0.  0.
287  2.86  0.  0.
288  2.87  0.  0.
289  2.88  0.  0.
290  2.89  0.  0.
291  2.90  0.  0.
292  2.91  0.  0.
293  2.92  0.  0.
294  2.93  0.  0.
295  2.94  0.  0.
296  2.95  0.  0.
297  2.96  0.  0.
298  2.97  0.  0.
299  2.98  0.  0.
300  2.99  0.  0.
301  3.00  0.  0.
302  3.01  0.  0.
303  3.02  0.  0.
304  3.03  0.  0.
305  3.04  0.  0.
306  3.05  0.  0.
307  3.06  0.  0.
308  3.07  0.  0.
309  3.08  0.  0.
310  3.09  0.  0.
311  3.10  0.  0.
312  3.11  0.  0.
313  3.12  0.  0.
314  3.13  0.  0.
315  3.14  0.  0.
316  3.15  0.  0.
317  3.16  0.  0.
318  3.17  0.  0.
319  3.18  0.  0.
320  3.19  0.  0.
321  3.20  0.  0.
322  3.21  0.  0.
323  3.22  0.  0.
324  3.23  0.  0.
325  3.24  0.  0.
326  3.25  0.  0.
327  3.26  0.  0.
328  3.27  0.  0.
329  3.28  0.  0.
330  3.29  0.  0.
331  3.30  0.  0.
332  3.31  0.  0.
333  3.32  0.  0.
334  3.33  0.  0.
335  3.34  0.  0.
336  3.35  0.  0.
337  3.36  0.  0.
338  3.37  0.  0.
339  3.38  0.  0.
340  3.39  0.  0.
341  3.40  0.  0.
342  3.41  0.  0.
343  3.42  0.  0.
344  3.43  0.  0.
345  3.44  0.  0.
346  3.45  0.  0.
347  3.46  0.  0.
348  3.47  0.  0.
349  3.48  0.  0.
350  3.49  0.  0.
351  3.50  0.  0.
352  3.51  0.  0.
353  3.52  0.  0.
354  3.53  0.  0.
355  3.54  0.  0.
356  3.55  0.  0.
357  3.56  0.  0.
358  3.57  0.  0.
359  3.58  0.  0.
360  3.59  0.  0.
361  3.60  0.  0.
362  3.61  0.  0.
363  3.62  0.  0.
364  3.63  0.  0.
365  3.64  0.  0.
366  3.65  0.  0.
367  3.66  0.  0.
368  3.67  0.  0.
369  3.68  0.  0.
370  3.69  0.  0.
371  3.70  0.  0.
372  3.71  0.  0.
373  3.72  0.  0.
374  3.73  0.  0.
375  3.74  0.  0.
376  3.75  0.  0.
377  3.76  0.  0.
378  3.77  0.  0.
379  3.78  0.  0.
380  3.79  0.  0.
381  3.80  0.  0.
382  3.81  0.  0.
383  3.82  0.  0.
384  3.83  0.  0.
385  3.84  0.  0.
386  3.85  0.  0.
387  3.86  0.  0.
388  3.87  0.  0.
389  3.88  0.  0.
390  3.89  0.  0.
391  3.90  0.  0.
392  3.91  0.  0.
393  3.92  0.  0.
394  3.93  0.  0.
395  3.94  0.  0.
396  3.95  0.  0.
397  3.96  0.  0.
398  3.97  0.  0.
399  3.98  0.  0.
400  3.99  0.  0.
401  4.00  0.  0.
402  4.01  0.  0.
403  4.02  0.  0.
404  4.03  0.  0.
405  4.04  0.  0.
406  4.05  0.  0.
407  4.06  0.  0.
408  4.07  0.  0.
409  4.08  0.  0.
410  4.09  0.  0.
411  4.10  0.  0.
412  4.11  0.  0.
413  4.12  0.  0.
414  4.13  0.  0.
415  4.14  0.  0.
416  4.15  0.  0.
417  4.16  0.  0.
418  4.17  0.  0.
419  4.18  0.  0.
420  4.19  0.  0.
421  4.20  0.  0.
422  4.21  0.  0.
423  4.22  0.  0.
424  4.23  0.  0.
425  4.24  0.  0.
426  4.25  0.  0.
427  4.26  0.  0.
428  4.27  0.  0.
429  4.28  0.  0.
430  4.29  0.  0.
431  4.30  0.  0.
432  4.31  0.  0.
433  4.32  0.  0.
434  4.33  0.  0.
435  4.34  0.  0.
436  4.35  0.  0.
437  4.36  0.  0.
438  4.37  0.  0.
439  4.38  0.  0.
440  4.39  0.  0.
441  4.40  0.  0.
442  4.41  0.  0.
443  4.42  0.  0.
444  4.43  0.  0.
445  4.44  0.  0.
446  4.45  0.  0.
447  4.46  0.  0.
448  4.47  0.  0.
449  4.48  0.  0.
450  4.49  0.  0.
451  4.50  0.  0.
452  4.51  0.  0.
453  4.52  0.  0.
454  4.53  0.  0.
455  4.54  0.  0.
456  4.55  0.  0.
457  4.56  0.  0.
458  4.57  0.  0.
459  4.58  0.  0.
460  4.59  0.  0.
461  4.60  0.  0.
462  4.61  0.  0.
463  4.62  0.  0.
464  4.63  0.  0.
465  4.64  0.  0.
466  4.65  0.  0.
467  4.66  0.  0.
468  4.67  0.  0.
469  4.68  0.  0.
470  4.69  0.  0.
471  4.70  0.  0.
472  4.71  0.  0.
473  4.72  0.  0.
474  4.73  0.  0.
475  4.74  0.  0.
476  4.75  0.  0.
477  4.76  0.  0.
478  4.77  0.  0.
479  4.78  0.  0.
480  4.79  0.  0.
481  4.80  0.  0.
482  4.81  0.  0.
483  4.82  0.  0.
484  4.83  0.  0.
485  4.84  0.  0.
486  4.85  0.  0.
487  4.86  0.  0.
488  4.87  0.  0.
489  4.88  0.  0.
490  4.89  0.  0.
491  4.90  0.  0.
492  4.91  0.  0.
493  4.92  0.  0.
494  4.93  0.  0.
495  4.94  0.  0.
496  4.95  0.  0.
497  4.96  0.  0.
498  4.97  0.  0.
499  4.98  0.  0.
500  4.99  0.  0.
501  5.00  0.  0.
502  5.01  0.  0.
503  5.02  0.  0.
504  5.03  0.  0.
505  5.04  0.  0.
506  5.05  0.  0.
507  5.06  0.  0.
508  5.07  0.  0.
509  5.08  0.  0.
510  5.09  0.  0.
511  5.10  0.  0.
512  5.11  0.  0.
513  5.12  0.  0.
514  5.13  0.  0.
515  5.14  0.  0.
516  5.15  0.  0.
517  5.16  0.  0.
518  5.17  0.  0.
519  5.18  0.  0.
520  5.19  0.  0.
521  5.20  0.  0.
522  5.21  0.  0.
523  5.22  0.  0.
524  5.23  0.  0.
525  5.24  0.  0.
526  5.25  0.  0.
527  5.26  0.  0.
528  5.27  0.  0.
529  5.28  0.  0.
530  5.29  0.  0.
531  5.30  0.  0.
532  5.31  0.  0.
533  5.32  0.  0.
534  5.33  0.  0.
535  5.34  0.  0.
536  5.35  0.  0.
537  5.36  0.  0.
538  5.37  0.  0.
539  5.38  0.  0.
540  5.39  0.  0.
541  5.40  0.  0.
542  5.41  0.  0.
543  5.42  0.  0.
544  5.43  0.  0.
545  5.44  0.  0.
546  5.45  0.  0.
547  5.46  0.  0.
548  5.47  0.  0.
549  5.48  0.  0.
550  5.49  0.  0.
551  5.50  0.  0.
552  5.51  0.  0.
553  5.52  0.  0.
554  5.53  0.  0.
555  5.54  0.  0.
556  5.55  0.  0.
557  5.56  0.  0.
558  5.57  0.  0.
559  5.58  0.  0.
560  5.59  0.  0.
561  5.60  0.  0.
562  5.61  0.  0.
563  5.62  0.  0.
564  5.63  0.  0.
565  5.64  0.  0.
566  5.65  0.  0.
567  5.66  0.  0.
568  5.67  0.  0.
569  5.68  0.  0.
570  5.69  0.  0.
571  5.70  0.  0.
572  5.71  0.  0.
573  5.72  0.  0.
574  5.73  0.  0.
575  5.74  0.  0.
576  5.75  0.  0.
577  5.76  0.  0.
578  5.77  0.  0.
579  5.78  0.  0.
580  5.79  0.  0.
581  5.80  0.  0.
582  5.81  0.  0.
583  5.82  0.  0.
584  5.83  0.  0.
585  5.84  0.  0.
586  5.85  0.  0.
587  5.86  0.  0.
588  5.87  0.  0.
589  5.88  0.  0.
590  5.89  0.  0.
591  5.90  0.  0.
592  5.91  0.  0.
593  5.92  0.  0.
594  5.93  0.  0.
595  5.94  0.  0.
596  5.95  0.  0.
597  5.96  0.  0.
598  5.97  0.  0.
599  5.98  0.  0.
600  5.99  0.  0.
1                         4.2485883368593E+00  4.4214171546443E-01
1  0.0000000000000E+00  7.4531842503278E-10 -2.4637912127146E-09
2  1.0000000000000E-02  5.1689517978595E-04 -8.4197405726884E-04
3  2.0000000000000E-02  2.0644759979171E-03 -3.3580630226064E-03
4  3.0000000000000E-02  4.6334632847248E-03 -7.5188840494064E-03
5  4.0000000000000E-02  8.2085079946902E-03 -1.3275853617068E-02
6  5.0000000000000E-02  1.2768364133980E-02 -2.0561764649079E-02
7  6.0000000000000E-02  1.8286128018990E-02 -2.9291585097959E-02
8  7.0000000000000E-02  2.4729541064729E-02 -3.9363468743708E-02
9  8.0000000000000E-02  3.2061352556554E-02 -5.0659966488598E-02
10  9.0000000000000E-02  4.0239738153822E-02 -6.3049424099382E-02
11  1.0000000000000E-01  4.9218769217556E-02 -7.6387550174938E-02
12  1.1000000000000E-01  5.8948927453747E-02 -9.0519136127433E-02
13  1.2000000000000E-01  6.9377658826263E-02 -1.0527990818105E-01
14  1.3000000000000E-01  8.0449960224815E-02 -1.2049848983425E-01
15  1.4000000000000E-01  9.2108991979298E-02 -1.3599845191762E-01
16  1.5000000000000E-01  1.0429670899688E-01 -1.5160042632425E-01
17  1.6000000000000E-01  1.1695450306598E-01 -1.6712425870602E-01
18  1.7000000000000E-01  1.3002384872456E-01 -1.8239117492601E-01
19  1.8000000000000E-01  1.4344694503117E-01 -1.9722593584088E-01
20  1.9000000000000E-01  1.5716734560579E-01 -2.1145895506007E-01
21  2.0000000000000E-01  1.7113056942502E-01 -2.2492835469153E-01
22  2.1000000000000E-01  1.8528468506018E-01 -2.3748193473150E-01
23  2.2000000000000E-01  1.9958086133559E-01 -2.4897903268398E-01
24  2.3000000000000E-01  2.1397387775554E-01 -2.5929225119162E-01
25  2.4000000000000E-01  2.2842258849668E-01 -2.6830903291354E-01
26  2.5000000000000E-01  2.4289033428423E-01 -2.7593306357912E-01
27  2.6000000000000E-01  2.5734529705925E-01 -2.8208548606320E-01
28  2.7000000000000E-01  2.7176079299346E-01 -2.8670591044568E-01
29  2.8000000000000E-01  2.8611550011165E-01 -2.8975320731388E-01
30  2.9000000000000E-01  3.0039361752987E-01 -2.9120607401463E-01
31  3.0000000000000E-01  3.1458495410477E-01 -2.9106336613669E-01
32  3.1000000000000E-01  3.2868494510355E-01 -2.8934418917554E-01
33  3.2000000000000E-01  3.4269459633914E-01 -2.8608774807087E-01
34  3.3000000000000E-01  3.5662035605948E-01 -2.8135295508272E-01
35  3.4000000000000E-01  3.7047391572522E-01 -2.7521779925330E-01
36  3.5000000000000E-01  3.8427194164619E-01 -2.6777848345731E-01
37  3.6000000000000E-01  3.9803574026539E-01 -2.5914833774342E-01
38  3.7000000000000E-01  4.1179086066859E-01 -2.4945652028137E-01
39  3.8000000000000E-01  4.2556663865151E-01 -2.3884651972592E-01
40  3.9000000000000E-01  4.3939568738380E-01 -2.2747447515892E-01
41  4.0000000000000E-01  4.5331334036332E-01 -2.1550733195040E-01
42  4.1000000000000E-01  4.6735705294655E-01 -2.0312085386103E-01
43  4.2000000000000E-01  4.8156576926544E-01 -1.9049751346990E-01
44  4.3000000000000E-01  4.9597926179037E-01 -1.7782428453263E-01
45  4.4000000000000E-01  5.1063745116870E-01 -1.6529036113652E-01
46  4.5000000000000E-01  5.2557971425296E-01 -1.5308482950704E-01
47  4.6000000000000E-01  5.4084418842971E-01 -1.4139431902138E-01
48  4.7000000000000E-01  5.5646708046529E-01 -1.3040065938961E-01
49  4.8000000000000E-01  5.7248198809794E-01 -1.2027857106834E-01
50  4.9000000000000E-01  5.8891924252499E-01 -1.1119341577061E-01
51  5.0000000000000E-01  6.0580527976084E-01 -1.0329903343195E-01
52  5.1000000000000E-01  6.2316204857598E-01 -9.6735691188802E-02
53  5.2000000000000E-01  6.4100646237374E-01 -9.1628168829761E-02
54  5.3000000000000E-01  6.5934990192141E-01 -8.8084003803458E-02
55  5.4000000000000E-01  6.7819777533140E-01 -8.6191917222137E-02
56  5.5000000000000E-01  6.9754914109135E-01 -8.6020440405482E-02
57  5.6000000000000E-01  7.1739639927549E-01 -8.7616759383305E-02
58  5.7000000000000E-01  7.3772505534017E-01 -9.1005792441951E-02
59  5.8000000000000E-01  7.5851356012262E-01 -9.6189513281517E-02
60  5.9000000000000E-01  7.7973322883111E-01 -1.0314652967718E-01
61  6.0000000000000E-01  8.0134824094680E-01 -1.1183192473598E-01
62  6.1000000000000E-01  8.2331572206142E-01 -1.2217736494160E-01
63  6.2000000000000E-01  8.4558590776032E-01 -1.3409147621481E-01
64  6.3000000000000E-01  8.6810238873840E-01 -1.4746048621992E-01
65  6.4000000000000E-01  8.9080243541544E-01 -1.6214912814945E-01
66  6.5000000000000E-01  9.1361739940973E-01 -1.7800179825533E-01
67  6.6000000000000E-01  9.3647318834319E-01 -1.9484395649639E-01
68  6.7000000000000E-01  9.5929080959813E-01 -2.1248375687303E-01
69  6.8000000000000E-01  9.8198697783518E-01 -2.3071389135126E-01
70  6.9000000000000E-01  1.0044747803227E+00 -2.4931362877028E-01
71  7.0000000000000E-01  1.0266643934293E+00 -2.6805102780987E-01
72  7.1000000000000E-01  1.0484638430004E+00 -2.8668530099162E-01
73  7.2000000000000E-01  1.0697798007856E+00 -3.0496930482807E-01
74  7.3000000000000E-01  1.0905184086133E+00 -3.2265212963531E-01
75  7.4000000000000E-01  1.1105861216224E+00 -3.3948176121041E-01
76  7.5000000000000E-01  1.1298905615763E+00 -3.5520778555805E-01
77  7.6000000000000E-01  1.1483413710858E+00 -3.6958410714678E-01
78  7.7000000000000E-01  1.1658510594813E+00 -3.8237165079243E-01
79  7.8000000000000E-01  1.1823358310784E+00 -3.9334101721167E-01
80  7.9000000000000E-01  1.1977163866966E+00 -4.0227506256478E-01
81  8.0000000000000E-01  1.2119186895031E+00 -4.0897137291266E-01
82  8.1000000000000E-01  1.2248746865664E+00 -4.1324460544462E-01
83  8.2000000000000E-01  1.2365229779191E+00 -4.1492866958163E-01
84  8.3000000000000E-01  1.2468094254309E+00 -4.1387872261459E-01
85  8.4000000000000E-01  1.2556876943908E+00 -4.0997295638102E-01
86  8.5000000000000E-01  1.2631197213710E+00 -4.0311415360123E-01
87  8.6000000000000E-01  1.2690761027003E+00 -3.9323099486190E-01
88  8.7000000000000E-01  1.2735363986975E+00 -3.8027909982939E-01
89  8.8000000000000E-01  1.2764893496933E+00 -3.6424178906786E-01
90  8.9000000000000E-01  1.2779330008046E+00 -3.4513055580103E-01
91  9.0000000000000E-01  1.2778747333967E+00 -3.2298524005787E-01
92  9.1000000000000E-01  1.2763312021707E+00 -2.9787390085005E-01
93  9.2000000000000E-01  1.2733281778385E+00 -2.6989238530774E-01
94  9.3000000000000E-01  1.2689002963767E+00 -2.3916359701361E-01
95  9.4000000000000E-01  1.2630907168795E+00 -2.0583646908916E-01
96  9.5000000000000E-01  1.2559506910447E+00 -1.7008465086359E-01
97  9.6000000000000E-01  1.2475390483167E+00 -1.3210492015906E-01
98  9.7000000000000E-01  1.2379216016601E+00 -9.2115336321245E-02
99  9.8000000000000E-01  1.2271704798441E+00 -5.0353152075727E-02
100  9.9000000000000E-01  1.2153633929669E+00 -7.0725050661361E-03
101  1.0000000000000E+00  1.2025828387264E+00  3.7458087503494E-02
102  1.0100000000000E+00  1.1889152576511E+00  8.2958405370066E-02
103  1.0200000000000E+00  1.1744501461229E+00  1.2913934503946E-01
104  1.0300000000000E+00  1.1592791365524E+00  1.7570585334950E-01
105  1.0400000000000E+00  1.1434950544969E+00  2.2235994371086E-01