<?xml version="1.0" encoding="UTF-8" ?>
<psml version="1.1" energy_unit="hartree" length_unit="bohr"
 uuid="c8a5e080-c73d-11ed-672d-0f65fe7b93aa"
 xmlns="http://esl.cecam.org/PSML/ns/1.1">
<provenance creator="ONCVPSP-4.0.1+psml-4.0.1-76 (scalar-relativistic)"
 date="2023-03-20">
<annotation action="semilocal-pseudopotential-generation"
 action-cont="projectors-generation" />
<input-file name="oncvpsp-input">
<![CDATA[# atsym z nc nv iexc psfile
Rn 86 13 2 4 both
# n l f
1 0 2.0
2 0 2.0
2 1 6.0
3 0 2.0
3 1 6.0
3 2 10.0
4 0 2.0
4 1 6.0
4 2 10.0
5 0 2.0
5 1 6.0
4 3 14.0
5 2 10.0
6 0 2.0
6 1 6.0
# lmax
3
# l rc ep ncon nbas qcut
0 2.4 0.0 4 7 4.6
1 2.1 0.0 4 8 5.0
2 2.85 0.05 4 7 3.4
3 2.1 0.05 4 7 4.0
# lloc lpopt rc5 dvloc0
4 5 2.1 0.0
# l nproj debl
0 2 4.2
1 2 2.2
2 2 2.2
3 2 1.0
# icmod fcfact
3 8.0 1.2
# epsh1 epsh2 depsh
-12.0 12.0 0.02
# rlmax drl
6.0 0.01
 0
]]>
</input-file>
</provenance>
<pseudo-atom-spec atomic-label="Rn" atomic-number="86" z-pseudo="8"
 flavor="Hamann&apos;s oncvpsp" relativity="scalar" spin-dft="no"
 core-corrections="yes">
<annotation pseudo-energy="-15.1220650494" cutoff_hint_low="19"
 cutoff_hint_normal="51" cutoff_hint_high="59" />
<exchange-correlation>
<annotation oncvpsp-xc-code="4" oncvpsp-xc-type="GGA -- Perdew-Burke-Ernzerhof" />
<libxc-info number-of-functionals="2">
<functional name="Perdew, Burke &amp; Ernzerhof (GGA)" type="exchange" id="101" />
<functional name="Perdew, Burke &amp; Ernzerhof (GGA)" type="correlation"
 id="130" />
</libxc-info>
</exchange-correlation>
<valence-configuration total-valence-charge="8">
<shell n="6" l="s" occupation="2" />
<shell n="6" l="p" occupation="6" />
</valence-configuration>
</pseudo-atom-spec>
<grid npts="797">
<annotation type="sampled from oncvpsp log grid"
 recipe="r(i:1..N) = r1*exp(a*(i-1)) + r=0; resampled"
 recipe-cont="r1: scale; a: step" scale="0.581395348837E-05"
 step="0.598207167755E-02" delta="0.500000000000E-02" rmax="44.5779877821" />
<grid-data>
  0.000000000000E+00  5.014062771055E-03  1.003588162514E-02  1.507364278152E-02
  2.008728741396E-02  2.521416328498E-02  3.035162608279E-02  3.545924317562E-02
  4.068956233840E-02  4.586090629785E-02  5.107475427876E-02  5.620487385536E-02
  6.148139149487E-02  6.685215605726E-02  7.225853756503E-02  7.763631908411E-02
  8.291683649795E-02  8.802834389729E-02  9.345495627408E-02  9.862435253569E-02
  1.040796903757E-01  1.091816962772E-01  1.145338034628E-01  1.201482719443E-01
  1.252862452501E-01  1.306439368195E-01  1.362307425977E-01  1.420564603343E-01
  1.472478198470E-01  1.526288941642E-01  1.582066162880E-01  1.639881725827E-01
  1.699810120334E-01  1.751420038205E-01  1.804596944995E-01  1.859388417882E-01
  1.915843478591E-01  1.974012637253E-01  2.033947937594E-01  2.095703003503E-01
  2.146454360839E-01  2.198434756959E-01  2.251673955331E-01  2.306202440197E-01
  2.362051434037E-01  2.419252915437E-01  2.477839637407E-01  2.537845146132E-01
  2.599303800178E-01  2.662250790170E-01  2.726722158940E-01  2.792754822162E-01
  2.843326629717E-01  2.894814202487E-01  2.947234123345E-01  3.000603275453E-01
  3.054938847695E-01  3.110258340216E-01  3.166579570057E-01  3.223920676892E-01
  3.282300128876E-01  3.341736728587E-01  3.402249619083E-01  3.463858290072E-01
  3.526582584182E-01  3.590442703358E-01  3.655459215366E-01  3.721653060417E-01
  3.789045557912E-01  3.857658413308E-01  3.927513725111E-01  3.998633991988E-01
  4.071042120020E-01  4.144761430074E-01  4.219815665319E-01  4.270605366666E-01
  4.322006372860E-01  4.374026041563E-01  4.426671819000E-01  4.479951241013E-01
  4.533871934150E-01  4.588441616749E-01  4.643668100049E-01  4.699559289301E-01
  4.756123184907E-01  4.813367883560E-01  4.871301579407E-01  4.929932565217E-01
  4.989269233572E-01  5.049320078067E-01  5.110093694526E-01  5.171598782234E-01
  5.233844145177E-01  5.296838693308E-01  5.360591443821E-01  5.425111522439E-01
  5.490408164723E-01  5.556490717393E-01  5.623368639668E-01  5.691051504615E-01
  5.759549000524E-01  5.828870932295E-01  5.899027222836E-01  5.970027914490E-01
  6.041883170469E-01  6.114603276308E-01  6.188198641342E-01  6.262679800189E-01
  6.338057414264E-01  6.414342273302E-01  6.491545296904E-01  6.569677536097E-01
  6.648750174922E-01  6.728774532027E-01  6.809762062295E-01  6.891724358477E-01
  6.974673152855E-01  7.058620318923E-01  7.143577873081E-01  7.229557976362E-01
  7.316572936165E-01  7.404635208025E-01  7.493757397389E-01  7.583952261424E-01
  7.675232710842E-01  7.767611811750E-01  7.861102787516E-01  7.955719020667E-01
  8.051474054799E-01  8.148381596523E-01  8.246455517419E-01  8.345709856026E-01
  8.395784115163E-01  8.446158819854E-01  8.496835772773E-01  8.547816787409E-01
  8.599103688134E-01  8.650698310263E-01  8.702602500124E-01  8.754818115125E-01
  8.807347023816E-01  8.860191105959E-01  8.913352252594E-01  8.966832366110E-01
  9.020633360307E-01  9.074757160468E-01  9.129205703431E-01  9.183980937652E-01
  9.239084823278E-01  9.294519332217E-01  9.350286448211E-01  9.406388166900E-01
  9.462826495901E-01  9.519603454877E-01  9.576721075606E-01  9.634181402060E-01
  9.691986490472E-01  9.750138409415E-01  9.808639239871E-01  9.867491075311E-01
  9.926696021762E-01  9.986256197893E-01  1.004617373508E+00  1.010645077749E+00
  1.016708948216E+00  1.022809201905E+00  1.028946057116E+00  1.035119733459E+00
  1.041330451860E+00  1.047578434571E+00  1.053863905178E+00  1.060187088609E+00
  1.066548211141E+00  1.072947500408E+00  1.079385185410E+00  1.085861496523E+00
  1.092376665502E+00  1.098930925495E+00  1.105524511048E+00  1.112157658114E+00
  1.118830604063E+00  1.125543587687E+00  1.132296849213E+00  1.139090630309E+00
  1.145925174091E+00  1.152800725135E+00  1.159717529486E+00  1.166675834663E+00
  1.173675889671E+00  1.180717945009E+00  1.187802252679E+00  1.194929066195E+00
  1.202098640592E+00  1.209311232436E+00  1.216567099830E+00  1.223866502429E+00
  1.231209701444E+00  1.238596959652E+00  1.246028541410E+00  1.253504712659E+00
  1.261025740935E+00  1.268591895380E+00  1.276203446753E+00  1.283860667433E+00
  1.291563831438E+00  1.299313214426E+00  1.307109093713E+00  1.314951748275E+00
  1.322841458765E+00  1.330778507518E+00  1.338763178563E+00  1.346795757634E+00
  1.354876532180E+00  1.363005791373E+00  1.371183826121E+00  1.379410929078E+00
  1.387687394652E+00  1.396013519020E+00  1.404389600134E+00  1.412815937735E+00
  1.421292833362E+00  1.429820590362E+00  1.438399513904E+00  1.447029910987E+00
  1.455712090453E+00  1.464446362996E+00  1.473233041174E+00  1.482072439421E+00
  1.490964874058E+00  1.499910663302E+00  1.508910127282E+00  1.517963588045E+00
  1.527071369574E+00  1.536233797791E+00  1.545451200578E+00  1.554723907781E+00
  1.564052251228E+00  1.573436564735E+00  1.582877184124E+00  1.592374447229E+00
  1.601928693912E+00  1.611540266075E+00  1.621209507672E+00  1.630936764718E+00
  1.640722385306E+00  1.650566719618E+00  1.660470119936E+00  1.670432940655E+00
  1.680455538299E+00  1.690538271529E+00  1.700681501158E+00  1.710885590165E+00
  1.721150903706E+00  1.731477809128E+00  1.741866675983E+00  1.752317876039E+00
  1.762831783295E+00  1.773408773995E+00  1.784049226639E+00  1.794753521999E+00
  1.805522043131E+00  1.816355175390E+00  1.827253306442E+00  1.838216826281E+00
  1.849246127238E+00  1.860341604002E+00  1.871503653626E+00  1.882732675548E+00
  1.894029071601E+00  1.905393246030E+00  1.916825605507E+00  1.928326559140E+00
  1.939896518494E+00  1.951535897605E+00  1.963245112991E+00  1.975024583669E+00
  1.986874731171E+00  1.998795979558E+00  2.010788755435E+00  2.022853487968E+00
  2.034990608896E+00  2.047200552549E+00  2.059483755865E+00  2.071840658400E+00
  2.084271702350E+00  2.096777332564E+00  2.109357996560E+00  2.122014144539E+00
  2.134746229406E+00  2.147554706783E+00  2.160440035023E+00  2.173402675233E+00
  2.186443091285E+00  2.199561749833E+00  2.212759120332E+00  2.226035675054E+00
  2.239391889104E+00  2.252828240438E+00  2.266345209881E+00  2.279943281140E+00
  2.293622940827E+00  2.307384678472E+00  2.321228986543E+00  2.335156360462E+00
  2.349167298625E+00  2.363262302417E+00  2.377441876231E+00  2.391706527489E+00
  2.406056766654E+00  2.420493107254E+00  2.435016065897E+00  2.449626162292E+00
  2.464323919266E+00  2.479109862782E+00  2.493984521959E+00  2.508948429090E+00
  2.524002119665E+00  2.539146132383E+00  2.554381009177E+00  2.569707295232E+00
  2.585125539004E+00  2.600636292238E+00  2.616240109991E+00  2.631937550651E+00
  2.647729175955E+00  2.663615551011E+00  2.679597244317E+00  2.695674827783E+00
  2.711848876749E+00  2.728119970010E+00  2.744488689830E+00  2.760955621969E+00
  2.777521355701E+00  2.794186483835E+00  2.810951602738E+00  2.827817312354E+00
  2.844784216228E+00  2.861852921526E+00  2.879024039055E+00  2.896298183289E+00
  2.913675972389E+00  2.931158028223E+00  2.948744976393E+00  2.966437446251E+00
  2.984236070928E+00  3.002141487354E+00  3.020154336278E+00  3.038275262296E+00
  3.056504913870E+00  3.074843943353E+00  3.093293007013E+00  3.111852765055E+00
  3.130523881645E+00  3.149307024935E+00  3.168202867085E+00  3.187212084287E+00
  3.206335356793E+00  3.225573368934E+00  3.244926809147E+00  3.264396370002E+00
  3.283982748222E+00  3.303686644712E+00  3.323508764580E+00  3.343449817167E+00
  3.363510516070E+00  3.383691579167E+00  3.403993728642E+00  3.424417691014E+00
  3.444964197160E+00  3.465633982343E+00  3.486427786237E+00  3.507346352954E+00
  3.528390431072E+00  3.549560773658E+00  3.570858138300E+00  3.592283287130E+00
  3.613836986853E+00  3.635520008774E+00  3.657333128827E+00  3.679277127600E+00
  3.701352790365E+00  3.723560907107E+00  3.745902272550E+00  3.768377686185E+00
  3.790987952302E+00  3.813733880016E+00  3.836616283296E+00  3.859635980996E+00
  3.882793796882E+00  3.906090559663E+00  3.929527103021E+00  3.953104265640E+00
  3.976822891233E+00  4.000683828581E+00  4.024687931552E+00  4.048836059142E+00
  4.073129075496E+00  4.097567849949E+00  4.122153257049E+00  4.146886176591E+00
  4.171767493651E+00  4.196798098613E+00  4.221978887205E+00  4.247310760528E+00
  4.272794625091E+00  4.298431392841E+00  4.324221981198E+00  4.350167313086E+00
  4.376268316964E+00  4.402525926866E+00  4.428941082427E+00  4.455514728922E+00
  4.482247817295E+00  4.509141304199E+00  4.536196152024E+00  4.563413328936E+00
  4.590793808910E+00  4.618338571763E+00  4.646048603194E+00  4.673924894813E+00
  4.701968444182E+00  4.730180254847E+00  4.758561336376E+00  4.787112704395E+00
  4.815835380621E+00  4.844730392905E+00  4.873798775262E+00  4.903041567914E+00
  4.932459817321E+00  4.962054576225E+00  4.991826903682E+00  5.021777865104E+00
  5.051908532295E+00  5.082219983489E+00  5.112713303390E+00  5.143389583210E+00
  5.174249920709E+00  5.205295420234E+00  5.236527192755E+00  5.267946355912E+00
  5.299554034047E+00  5.331351358251E+00  5.363339466401E+00  5.395519503199E+00
  5.427892620218E+00  5.460459975940E+00  5.493222735795E+00  5.526182072210E+00
  5.559339164643E+00  5.592695199631E+00  5.626251370829E+00  5.660008879054E+00
  5.693968932328E+00  5.728132745922E+00  5.762501542398E+00  5.797076551652E+00
  5.831859010962E+00  5.866850165028E+00  5.902051266018E+00  5.937463573614E+00
  5.973088355056E+00  6.008926885186E+00  6.044980446497E+00  6.081250329176E+00
  6.117737831151E+00  6.154444258138E+00  6.191370923687E+00  6.228519149229E+00
  6.265890264125E+00  6.303485605709E+00  6.341306519344E+00  6.379354358460E+00
  6.417630484610E+00  6.456136267518E+00  6.494873085123E+00  6.533842323634E+00
  6.573045377576E+00  6.612483649841E+00  6.652158551740E+00  6.692071503051E+00
  6.732223932069E+00  6.772617275661E+00  6.813252979315E+00  6.854132497191E+00
  6.895257292174E+00  6.936628835928E+00  6.978248608943E+00  7.020118100597E+00
  7.062238809200E+00  7.104612242056E+00  7.147239915508E+00  7.190123355001E+00
  7.233264095131E+00  7.276663679702E+00  7.320323661780E+00  7.364245603751E+00
  7.408431077373E+00  7.452881663837E+00  7.497598953820E+00  7.542584547543E+00
  7.587840054829E+00  7.633367095157E+00  7.679167297728E+00  7.725242301515E+00
  7.771593755324E+00  7.818223317856E+00  7.865132657763E+00  7.912323453710E+00
  7.959797394432E+00  8.007556178798E+00  8.055601515871E+00  8.103935124966E+00
  8.152558735716E+00  8.201474088131E+00  8.250682932659E+00  8.300187030255E+00
  8.349988152437E+00  8.400088081351E+00  8.450488609840E+00  8.501191541499E+00
  8.552198690748E+00  8.603511882892E+00  8.655132954189E+00  8.707063751915E+00
  8.759306134426E+00  8.811861971233E+00  8.864733143060E+00  8.917921541918E+00
  8.971429071170E+00  9.025257645597E+00  9.079409191470E+00  9.133885646619E+00
  9.188688960499E+00  9.243821094262E+00  9.299284020828E+00  9.355079724952E+00
  9.411210203302E+00  9.467677464522E+00  9.524483529309E+00  9.581630430485E+00
  9.639120213068E+00  9.696954934346E+00  9.755136663952E+00  9.813667483936E+00
  9.872549488840E+00  9.931784785773E+00  9.991375494487E+00  1.005132374745E+01
  1.011163168994E+01  1.017230148008E+01  1.023333528896E+01  1.029473530069E+01
  1.035650371250E+01  1.041864273477E+01  1.048115459118E+01  1.054404151873E+01
  1.060730576784E+01  1.067094960245E+01  1.073497530006E+01  1.079938515186E+01
  1.086418146277E+01  1.092936655155E+01  1.099494275086E+01  1.106091240736E+01
  1.112727788181E+01  1.119404154910E+01  1.126120579839E+01  1.132877303318E+01
  1.139674567138E+01  1.146512614541E+01  1.153391690228E+01  1.160312040370E+01
  1.167273912612E+01  1.174277556088E+01  1.181323221424E+01  1.188411160753E+01
  1.195541627717E+01  1.202714877484E+01  1.209931166748E+01  1.217190753749E+01
  1.224493898271E+01  1.231840861661E+01  1.239231906831E+01  1.246667298272E+01
  1.254147302062E+01  1.261672185874E+01  1.269242218989E+01  1.276857672303E+01
  1.284518818337E+01  1.292225931247E+01  1.299979286835E+01  1.307779162556E+01
  1.315625837531E+01  1.323519592556E+01  1.331460710111E+01  1.339449474372E+01
  1.347486171218E+01  1.355571088246E+01  1.363704514775E+01  1.371886741864E+01
  1.380118062315E+01  1.388398770689E+01  1.396729163313E+01  1.405109538293E+01
  1.413540195523E+01  1.422021436696E+01  1.430553565316E+01  1.439136886708E+01
  1.447771708028E+01  1.456458338276E+01  1.465197088306E+01  1.473988270836E+01
  1.482832200461E+01  1.491729193664E+01  1.500679568825E+01  1.509683646238E+01
  1.518741748116E+01  1.527854198605E+01  1.537021323796E+01  1.546243451739E+01
  1.555520912449E+01  1.564854037924E+01  1.574243162152E+01  1.583688621125E+01
  1.593190752851E+01  1.602749897368E+01  1.612366396753E+01  1.622040595133E+01
  1.631772838704E+01  1.641563475736E+01  1.651412856591E+01  1.661321333730E+01
  1.671289261732E+01  1.681316997303E+01  1.691404899287E+01  1.701553328682E+01
  1.711762648655E+01  1.722033224546E+01  1.732365423894E+01  1.742759616437E+01
  1.753216174136E+01  1.763735471181E+01  1.774317884008E+01  1.784963791312E+01
  1.795673574060E+01  1.806447615504E+01  1.817286301197E+01  1.828190019004E+01
  1.839159159118E+01  1.850194114073E+01  1.861295278757E+01  1.872463050430E+01
  1.883697828732E+01  1.895000015705E+01  1.906370015799E+01  1.917808235894E+01
  1.929315085309E+01  1.940890975821E+01  1.952536321676E+01  1.964251539606E+01
  1.976037048844E+01  1.987893271137E+01  1.999820630764E+01  2.011819554548E+01
  2.023890471875E+01  2.036033814707E+01  2.048250017595E+01  2.060539517700E+01
  2.072902754807E+01  2.085340171335E+01  2.097852212364E+01  2.110439325638E+01
  2.123101961592E+01  2.135840573361E+01  2.148655616801E+01  2.161547550502E+01
  2.174516835805E+01  2.187563936820E+01  2.200689320441E+01  2.213893456363E+01
  2.227176817102E+01  2.240539878004E+01  2.253983117272E+01  2.267507015976E+01
  2.281112058072E+01  2.294798730420E+01  2.308567522803E+01  2.322418927940E+01
  2.336353441507E+01  2.350371562156E+01  2.364473791529E+01  2.378660634278E+01
  2.392932598084E+01  2.407290193672E+01  2.421733934835E+01  2.436264338444E+01
  2.450881924474E+01  2.465587216021E+01  2.480380739317E+01  2.495263023753E+01
  2.510234601896E+01  2.525296009507E+01  2.540447785564E+01  2.555690472277E+01
  2.571024615111E+01  2.586450762802E+01  2.601969467379E+01  2.617581284183E+01
  2.633286771888E+01  2.649086492519E+01  2.664981011474E+01  2.680970897543E+01
  2.697056722928E+01  2.713239063266E+01  2.729518497646E+01  2.745895608631E+01
  2.762370982283E+01  2.778945208177E+01  2.795618879426E+01  2.812392592703E+01
  2.829266948259E+01  2.846242549948E+01  2.863320005248E+01  2.880499925280E+01
  2.897782924831E+01  2.915169622380E+01  2.932660640114E+01  2.950256603955E+01
  2.967958143579E+01  2.985765892440E+01  3.003680487795E+01  3.021702570722E+01
  3.039832786146E+01  3.058071782863E+01  3.076420213560E+01  3.094878734842E+01
  3.113448007251E+01  3.132128695294E+01  3.150921467466E+01  3.169826996271E+01
  3.188845958248E+01  3.207979033998E+01  3.227226908202E+01  3.246590269651E+01
  3.266069811269E+01  3.285666230136E+01  3.305380227517E+01  3.325212508882E+01
  3.345163783936E+01  3.365234766639E+01  3.385426175239E+01  3.405738732291E+01
  3.426173164684E+01  3.446730203672E+01  3.467410584894E+01  3.488215048404E+01
  3.509144338694E+01  3.530199204726E+01  3.551380399955E+01  3.572688682354E+01
  3.594124814449E+01  3.615689563335E+01  3.637383700715E+01  3.659208002920E+01
  3.681163250937E+01  3.703250230443E+01  3.725469731825E+01  3.747822550216E+01
  3.770309485518E+01  3.792931342431E+01  3.815688930485E+01  3.838583064068E+01
  3.861614562453E+01  3.884784249827E+01  3.908092955326E+01  3.931541513058E+01
  3.955130762137E+01  3.978861546709E+01  4.002734715990E+01  4.026751124286E+01
  4.050911631031E+01  4.075217100818E+01  4.099668403422E+01  4.124266413843E+01
  4.149012012326E+01  4.173906084400E+01  4.198949520906E+01  4.224143218032E+01
  4.249488077340E+01  4.274985005804E+01  4.300634915839E+01  4.326438725334E+01
  4.352397357686E+01  4.378511741832E+01  4.404782812283E+01  4.431211509157E+01
  4.457798778212E+01
</grid-data>
</grid>
<valence-charge total-charge="8" is-unscreening-charge="yes"
 rescaled-to-z-pseudo="no">
<radfunc>
<data npts="797">
  5.159331721313E-03  5.163861403582E-03  5.177488935599E-03  5.200332547681E-03
  5.232240616895E-03  5.274409673754E-03  5.326442751143E-03  5.387997810181E-03
  5.461333808090E-03  5.544265310282E-03  5.638569474838E-03  5.742054115500E-03
  5.859808836660E-03  5.991740628964E-03  6.137174518653E-03  6.294759527973E-03
  6.462397930480E-03  6.637210168547E-03  6.836712564013E-03  7.040502463381E-03
  7.270583427342E-03  7.500174181600E-03  7.756490881945E-03  8.042980224818E-03
  8.321500797909E-03  8.629148401486E-03  8.969325980770E-03  9.345885740456E-03
  9.700903383359E-03  1.008894181493E-02  1.051345184605E-02  1.097828840426E-02
  1.148776191977E-02  1.194988428563E-02  1.244944030768E-02  1.298983476317E-02
  1.357481406919E-02  1.420850260951E-02  1.489544295895E-02  1.564064040271E-02
  1.628243248865E-02  1.696811240600E-02  1.770101463012E-02  1.848474609950E-02
  1.932320904853E-02  2.022062569265E-02  2.118156489813E-02  2.221097097482E-02
  2.331419473545E-02  2.449702697047E-02  2.576573449101E-02  2.712709889595E-02
  2.821332040441E-02  2.935909219599E-02  3.056793111939E-02  3.184356726137E-02
  3.318995640513E-02  3.461129311459E-02  3.611202446144E-02  3.769686441005E-02
  3.937080887293E-02  4.113915144681E-02  4.300749983617E-02  4.498179296686E-02
  4.706831878788E-02  4.927373275397E-02  5.160507697488E-02  5.406980000997E-02
  5.667577727779E-02  5.943133204063E-02  6.234525691203E-02  6.542683582257E-02
  6.868586636415E-02  7.213268241589E-02  7.577817693586E-02  7.832452550601E-02
  8.096781142598E-02  8.371170539606E-02  8.656000342139E-02  8.951662967497E-02
  9.258563929161E-02  9.577122107626E-02  9.907770010865E-02  1.025095402246E-01
  1.060713463524E-01  1.097678666814E-01  1.136039946370E-01  1.175847706350E-01
  1.217153835857E-01  1.260011721162E-01  1.304476254764E-01  1.350603840911E-01
  1.398452397206E-01  1.448081351858E-01  1.499551636132E-01  1.552925671524E-01
  1.608267351136E-01  1.665642014722E-01  1.725116416813E-01  1.786758687336E-01
  1.850638284056E-01  1.916825936192E-01  1.985393578485E-01  2.056414274979E-01
  2.129962131747E-01  2.206112197754E-01  2.284940353024E-01  2.366523183247E-01
  2.450937839953E-01  2.538261885326E-01  2.628573120746E-01  2.721949398119E-01
  2.818468413035E-01  2.918207478815E-01  3.021243280491E-01  3.127651607789E-01
  3.237507066192E-01  3.350882765208E-01  3.467849982980E-01  3.588477806456E-01
  3.712832746391E-01  3.840978326515E-01  3.972974646320E-01  4.108877917011E-01
  4.248739970291E-01  4.392607739806E-01  4.540522715212E-01  4.692520369041E-01
  4.848629556704E-01  5.008871890214E-01  5.173261086447E-01  5.341802291012E-01
  5.427628989099E-01  5.514491379075E-01  5.602387378606E-01  5.691314234807E-01
  5.781268500696E-01  5.872246011399E-01  5.964241860131E-01  6.057250373967E-01
  6.151265089442E-01  6.246278727984E-01  6.342283171235E-01  6.439269436259E-01
  6.537227650692E-01  6.636147027851E-01  6.736015841844E-01  6.836821402705E-01
  6.938550031604E-01  7.041187036159E-01  7.144716685901E-01  7.249122187915E-01
  7.354385662721E-01  7.460488120424E-01  7.567409437186E-01  7.675128332062E-01
  7.783622344259E-01  7.892867810852E-01  8.002839845028E-01  8.113512314889E-01
  8.224857822897E-01  8.336847685983E-01  8.449451916409E-01  8.562639203418E-01
  8.676376895749E-01  8.790630985062E-01  8.905366090352E-01  9.020545443400E-01
  9.136130875334E-01  9.252082804367E-01  9.368360224770E-01  9.484920697160E-01
  9.601720340153E-01  9.718713823478E-01  9.835854362590E-01  9.953093714883E-01
  1.007038217756E+00  1.018766858721E+00  1.030490032126E+00  1.042202330119E+00
  1.053898199782E+00  1.065571943857E+00  1.077217721677E+00  1.088829550331E+00
  1.100401306034E+00  1.111926725750E+00  1.123399409042E+00  1.134812820181E+00
  1.146160290503E+00  1.157435021041E+00  1.168630085422E+00  1.179738433048E+00
  1.190752892566E+00  1.201666175633E+00  1.212470880990E+00  1.223159498841E+00
  1.233724415562E+00  1.244157918728E+00  1.254452202487E+00  1.264599373267E+00
  1.274591455841E+00  1.284420399749E+00  1.294078086081E+00  1.303556334641E+00
  1.312846911476E+00  1.321941536806E+00  1.330831893330E+00  1.339509634935E+00
  1.347966395805E+00  1.356193799927E+00  1.364183471016E+00  1.371927042836E+00
  1.379416169942E+00  1.386642538829E+00  1.393597879487E+00  1.400273977376E+00
  1.406662685791E+00  1.412755938633E+00  1.418545763576E+00  1.424024295609E+00
  1.429183790956E+00  1.434016641351E+00  1.438515388664E+00  1.442672739842E+00
  1.446481582167E+00  1.449934998784E+00  1.453026284494E+00  1.455748961766E+00
  1.458096796944E+00  1.460063816608E+00  1.461644324055E+00  1.462832915850E+00
  1.463624498399E+00  1.464014304505E+00  1.463997909839E+00  1.463571249271E+00
  1.462730633004E+00  1.461472762446E+00  1.459794745735E+00  1.457694112875E+00
  1.455168830374E+00  1.452217315330E+00  1.448838448877E+00  1.445031588906E+00
  1.440796581981E+00  1.436133774361E+00  1.431044022046E+00  1.425528699759E+00
  1.419589708785E+00  1.413229483565E+00  1.406450996994E+00  1.399257764313E+00
  1.391653845546E+00  1.383643846389E+00  1.375232917512E+00  1.366426752190E+00
  1.357231582231E+00  1.347654172154E+00  1.337701811576E+00  1.327382305796E+00
  1.316703964560E+00  1.305675588995E+00  1.294306456750E+00  1.282606305337E+00
  1.270585313731E+00  1.258254082278E+00  1.245623610971E+00  1.232705276171E+00
  1.219510805887E+00  1.206052253698E+00  1.192341971460E+00  1.178392580919E+00
  1.164216944393E+00  1.149828134668E+00  1.135239404297E+00  1.120464154462E+00
  1.105515903606E+00  1.090408256022E+00  1.075154870614E+00  1.059769430093E+00
  1.044265610814E+00  1.028657053205E+00  1.012957332919E+00  9.971799333637E-01
  9.813382195731E-01  9.654454136613E-01  9.495145719958E-01  9.335585556580E-01
  9.175899674176E-01  9.016210727564E-01  8.856637776920E-01  8.697296294432E-01
  8.538298014361E-01  8.379750858043E-01  8.221758860061E-01  8.064422106645E-01
  7.907836685344E-01  7.752094645853E-01  7.597283971946E-01  7.443488564330E-01
  7.290788234242E-01  7.139258707333E-01  6.988971637553E-01  6.839994631710E-01
  6.692391284575E-01  6.546221222799E-01  6.401540157822E-01  6.258399947288E-01
  6.116848664547E-01  5.976930727385E-01  5.838687241543E-01  5.702156475686E-01
  5.567373913508E-01  5.434372315061E-01  5.303181775641E-01  5.173829786110E-01
  5.046341294510E-01  4.920738768807E-01  4.797042260612E-01  4.675269469748E-01
  4.555435809519E-01  4.437554472531E-01  4.321636496966E-01  4.207690833147E-01
  4.095724410310E-01  3.985742203434E-01  3.877747300046E-01  3.771740966881E-01
  3.667722716297E-01  3.565690372355E-01  3.465640136472E-01  3.367566652558E-01
  3.271463071563E-01  3.177321115348E-01  3.085131139822E-01  2.994882197265E-01
  2.906562097794E-01  2.820157469888E-01  2.735653819949E-01  2.653035590831E-01
  2.572286219297E-01  2.493388192372E-01  2.416323102552E-01  2.341071701825E-01
  2.267613954505E-01  2.195929088825E-01  2.125995647286E-01  2.057791535737E-01
  1.991294071187E-01  1.926480028311E-01  1.863325684667E-01  1.801806864613E-01
  1.741898981917E-01  1.683577081056E-01  1.626815877232E-01  1.571589795070E-01
  1.517873006052E-01  1.465639464648E-01  1.414862943201E-01  1.365517065538E-01
  1.317575339357E-01  1.271011187373E-01  1.225797977265E-01  1.181909050431E-01
  1.139317749562E-01  1.097997445076E-01  1.057921560408E-01  1.019063596191E-01
  9.813971533434E-02  9.448959550922E-02  9.095338679379E-02  8.752849215984E-02
  8.421233279445E-02  8.100234989517E-02  7.789600636891E-02  7.489078843677E-02
  7.198420714674E-02  6.917379979665E-02  6.645713126917E-02  6.383179528122E-02
  6.129541554955E-02  5.884564687469E-02  5.648017614521E-02  5.419672326425E-02
  5.199304200036E-02  4.986692076446E-02  4.781618331492E-02  4.583868939277E-02
  4.393233528877E-02  4.209505434437E-02  4.032481738840E-02  3.861963311146E-02
  3.697754837985E-02  3.539664849092E-02  3.387505737189E-02  3.241093772382E-02
  3.100249111298E-02  2.964795801115E-02  2.834561778719E-02  2.709378865148E-02
  2.589082755545E-02  2.473513004792E-02  2.362513009044E-02  2.255929983330E-02
  2.153614935451E-02  2.055422636331E-02  1.961211587050E-02  1.870843982728E-02
  1.784185673464E-02  1.701106122510E-02  1.621478361880E-02  1.545178945565E-02
  1.472087900548E-02  1.402088675793E-02  1.335068089383E-02  1.270916273981E-02
  1.209526620785E-02  1.150795722131E-02  1.094623312920E-02  1.040912211008E-02
  9.895682567128E-03  9.405002515876E-03  8.936198965974E-03  8.488417298277E-03
  8.060830638596E-03  7.652639229293E-03  7.263069799910E-03  6.891374937925E-03
  6.536832460686E-03  6.198744789506E-03  5.876438326860E-03  5.569262837540E-03
  5.276590834595E-03  4.997816970794E-03  4.732357436331E-03  4.479649363396E-03
  4.239150238215E-03  4.010337321085E-03  3.792707074894E-03  3.585774602557E-03
  3.389073093752E-03  3.202153281302E-03  3.024582907488E-03  2.855946200552E-03
  2.695843361595E-03  2.543890062042E-03  2.399716951821E-03  2.262969178329E-03
  2.133305916288E-03  2.010399908502E-03  1.893937017534E-03  1.783615788292E-03
  1.679147021472E-03  1.580253357805E-03  1.486668873028E-03  1.398138683470E-03
  1.314418562144E-03  1.235274565213E-03  1.160482668694E-03  1.089828415239E-03
  1.023106570835E-03  9.601207912541E-04  9.006832980813E-04  8.446145641316E-04
  7.917430080791E-04  7.419046981093E-04  6.949430644038E-04  6.507086202704E-04
  6.090586917276E-04  5.698571553541E-04  5.329741842165E-04  4.982860016869E-04
  4.656746429683E-04  4.350277241447E-04  4.062382185762E-04  3.792042404648E-04
  3.538288354160E-04  3.300197778270E-04  3.076893749350E-04  2.867542773620E-04
  2.671352959962E-04  2.487572250527E-04  2.315486711604E-04  2.154418883250E-04
  2.003726186190E-04  1.862799384557E-04  1.731061103047E-04  1.607964397099E-04
  1.492991374734E-04  1.385651868713E-04  1.285482157696E-04  1.192043735106E-04
  1.104922124433E-04  1.023725739710E-04  9.480847899414E-05  8.776502262639E-05
  8.120927306442E-05  7.511017449381E-05  6.943845391477E-05  6.416653177362E-05
  5.926843628709E-05  5.471972134860E-05  5.049738790716E-05  4.657980871107E-05
  4.294665631040E-05  3.957883421385E-05  3.645841109712E-05  3.356855796182E-05
  3.089348814546E-05  2.841840008489E-05  2.612942273719E-05  2.401356356405E-05
  2.205865898702E-05  2.025332722345E-05  1.858692341415E-05  1.704949695615E-05
  1.563175095574E-05  1.432500371871E-05  1.312115219684E-05  1.201263731174E-05
  1.099241107878E-05  1.005390545632E-05  9.191002846976E-06  8.398008180143E-06
  7.669622506557E-06  7.000918038106E-06  6.387314567850E-06  5.824557207331E-06
  5.308695380254E-06  4.836063013595E-06  4.403259869164E-06  4.007133960648E-06
  3.644765003046E-06  3.313448843371E-06  3.010682823351E-06  2.734152026739E-06
  2.481716365671E-06  2.251398462288E-06  2.041372283645E-06  1.849952489601E-06
  1.675584455120E-06  1.516834930026E-06  1.372383300897E-06  1.241013421318E-06
  1.121605978251E-06  1.013131363778E-06  9.146430228744E-07  8.252712492932E-07
  7.442174029808E-07  6.707485237427E-07  6.041923171475E-07  5.439324898673E-07
  4.894044128251E-07  4.400910916511E-07  3.955194250280E-07  3.552567325546E-07
  3.189075347511E-07  2.861105687902E-07  2.565360244563E-07  2.298829857109E-07
  2.058770640840E-07  1.842682109087E-07  1.648286961843E-07  1.473512425767E-07
  1.316473037612E-07  1.175454769695E-07  1.048900402290E-07  9.353960537851E-08
  8.336587850495E-08  7.425251998126E-08  6.609409679148E-08  5.879512030528E-08
  5.226916311690E-08  4.643804898918E-08  4.123111034573E-08  3.658450813253E-08
  3.244060922767E-08  2.874741691268E-08  2.545805023482E-08  2.253026838538E-08