Sb    ONCVPSP-4.0.1  r_core=   1.80928   2.10115   1.80928   2.00296
51.0000     15.0000      220201    zatom,zion,pspd
8      11   3     4   600     0    pspcod,pspxc,lmax,lloc,mmax,r2well
5.99000000  5.00000000  0.00000000    rchrg fchrg qchrg
2     2     2     1     0    nproj
1     1           extension_switch
0                         9.9792727449002E+00  1.5593166725727E+00
1  0.0000000000000E+00 -5.1700310699232E-13 -2.2597396176494E-11
2  1.0000000000000E-02  2.6065018289723E-02 -1.2608737087260E-02
3  2.0000000000000E-02  5.2098069861603E-02 -2.5193785470128E-02
4  3.0000000000000E-02  7.8067337979125E-02 -3.7731506536851E-02
5  4.0000000000000E-02  1.0394130522742E-01 -5.0198361997360E-02
6  5.0000000000000E-02  1.2968890157155E-01 -6.2570964379236E-02
7  6.0000000000000E-02  1.5527965049195E-01 -7.4826127909480E-02
8  7.0000000000000E-02  1.8068381255615E-01 -8.6940919883658E-02
9  8.0000000000000E-02  2.0587252578687E-01 -9.8892712601401E-02
10  9.0000000000000E-02  2.3081794218688E-01 -1.1065923591948E-01
11  1.0000000000000E-01  2.5549335978298E-01 -1.2221863044147E-01
12  1.1000000000000E-01  2.7987334955342E-01 -1.3354950132639E-01
13  1.2000000000000E-01  3.0393387660639E-01 -1.4463097265889E-01
14  1.3000000000000E-01  3.2765241498197E-01 -1.5544274228012E-01
15  1.4000000000000E-01  3.5100805545586E-01 -1.6596513693336E-01
16  1.5000000000000E-01  3.7398160573131E-01 -1.7617916753115E-01
17  1.6000000000000E-01  3.9655568241599E-01 -1.8606658430280E-01
18  1.7000000000000E-01  4.1871479419302E-01 -1.9560993153315E-01
19  1.8000000000000E-01  4.4044541561108E-01 -2.0479260155576E-01
20  1.9000000000000E-01  4.6173605093693E-01 -2.1359888761809E-01
21  2.0000000000000E-01  4.8257728753597E-01 -2.2201403519237E-01
22  2.1000000000000E-01  5.0296183827188E-01 -2.3002429126530E-01
23  2.2000000000000E-01  5.2288457244635E-01 -2.3761695110315E-01
24  2.3000000000000E-01  5.4234253483352E-01 -2.4478040195658E-01
25  2.4000000000000E-01  5.6133495240235E-01 -2.5150416314315E-01
26  2.5000000000000E-01  5.7986322836274E-01 -2.5777892192449E-01
27  2.6000000000000E-01  5.9793092321881E-01 -2.6359656458137E-01
28  2.7000000000000E-01  6.1554372256525E-01 -2.6895020208333E-01
29  2.8000000000000E-01  6.3270939141959E-01 -2.7383418975028E-01
30  2.9000000000000E-01  6.4943771494532E-01 -2.7824414031303E-01
31  3.0000000000000E-01  6.6574042548740E-01 -2.8217692979722E-01
32  3.1000000000000E-01  6.8163111591279E-01 -2.8563069568160E-01
33  3.2000000000000E-01  6.9712513932458E-01 -2.8860482681749E-01
34  3.3000000000000E-01  7.1223949529761E-01 -2.9109994463957E-01
35  3.4000000000000E-01  7.2699270286724E-01 -2.9311787525255E-01
36  3.5000000000000E-01  7.4140466058988E-01 -2.9466161203938E-01
37  3.6000000000000E-01  7.5549649408354E-01 -2.9573526850743E-01
38  3.7000000000000E-01  7.6929039154934E-01 -2.9634402116766E-01
39  3.8000000000000E-01  7.8280942786872E-01 -2.9649404232750E-01
40  3.9000000000000E-01  7.9607737796699E-01 -2.9619242277198E-01
41  4.0000000000000E-01  8.0911852022945E-01 -2.9544708440615E-01
42  4.1000000000000E-01  8.2195743085257E-01 -2.9426668303764E-01
43  4.2000000000000E-01  8.3461877010739E-01 -2.9266050158721E-01
44  4.3000000000000E-01  8.4712706158561E-01 -2.9063833412873E-01
45  4.4000000000000E-01  8.5950646558929E-01 -2.8821036127518E-01
46  4.5000000000000E-01  8.7178054791267E-01 -2.8538701754585E-01
47  4.6000000000000E-01  8.8397204534664E-01 -2.8217885146580E-01
48  4.7000000000000E-01  8.9610262931473E-01 -2.7859637926662E-01
49  4.8000000000000E-01  9.0819266912044E-01 -2.7464993317118E-01
50  4.9000000000000E-01  9.2026099635014E-01 -2.7034950535608E-01
51  5.0000000000000E-01  9.3232467203235E-01 -2.6570458879122E-01
52  5.1000000000000E-01  9.4439875820181E-01 -2.6072401625598E-01
53  5.2000000000000E-01  9.5649609555476E-01 -2.5541579892319E-01
54  5.3000000000000E-01  9.6862708890965E-01 -2.4978696598548E-01
55  5.4000000000000E-01  9.8079950220404E-01 -2.4384340687223E-01
56  5.5000000000000E-01  9.9301826476341E-01 -2.3758971766657E-01
57  5.6000000000000E-01  1.0052852905697E+00 -2.3102905338153E-01
58  5.7000000000000E-01  1.0175993122378E+00 -2.2416298779067E-01
59  5.8000000000000E-01  1.0299557313734E+00 -2.1699138252942E-01
60  5.9000000000000E-01  1.0423464869392E+00 -2.0951226718962E-01
61  6.0000000000000E-01  1.0547599431951E+00 -2.0172173211964E-01
62  6.1000000000000E-01  1.0671807987025E+00 -1.9361383561583E-01
63  6.2000000000000E-01  1.0795900177934E+00 -1.8518052714656E-01
64  6.3000000000000E-01  1.0919647858027E+00 -1.7641158818888E-01
65  6.4000000000000E-01  1.1042784892448E+00 -1.6729459217876E-01
66  6.5000000000000E-01  1.1165007219851E+00 -1.5781488497811E-01
67  6.6000000000000E-01  1.1285973183153E+00 -1.4795558714795E-01
68  6.7000000000000E-01  1.1405304136835E+00 -1.3769761918507E-01
69  6.8000000000000E-01  1.1522585336678E+00 -1.2701975073058E-01
70  6.9000000000000E-01  1.1637367115997E+00 -1.1589867459502E-01
71  7.0000000000000E-01  1.1749166350598E+00 -1.0430910626423E-01
72  7.1000000000000E-01  1.1857468212721E+00 -9.2223909357031E-02
73  7.2000000000000E-01  1.1961728212193E+00 -7.9614247298646E-02
74  7.3000000000000E-01  1.2061374520932E+00 -6.6449761256011E-02
75  7.4000000000000E-01  1.2155810574793E+00 -5.2698774152725E-02
76  7.5000000000000E-01  1.2244417944603E+00 -3.8328520345279E-02
77  7.6000000000000E-01  1.2326559466017E+00 -2.3305400299169E-02
78  7.7000000000000E-01  1.2401582615672E+00 -7.5952593565050E-03
79  7.8000000000000E-01  1.2468823118912E+00  8.8363105634391E-03
80  7.9000000000000E-01  1.2527608772285E+00  2.6023647738596E-02
81  8.0000000000000E-01  1.2577263461860E+00  4.4000677549979E-02
82  8.1000000000000E-01  1.2617111356487E+00  6.2800551418656E-02
83  8.2000000000000E-01  1.2646481253130E+00  8.2455269911213E-02
84  8.3000000000000E-01  1.2664711049649E+00  1.0299529237882E-01
85  8.4000000000000E-01  1.2671152318703E+00  1.2444913571188E-01
86  8.5000000000000E-01  1.2665174954876E+00  1.4684296499595E-01
87  8.6000000000000E-01  1.2646171865805E+00  1.7020017904118E-01
88  8.7000000000000E-01  1.2613563676793E+00  1.9454099392761E-01
89  8.8000000000000E-01  1.2566803417458E+00  2.1988202785679E-01
90  8.9000000000000E-01  1.2505381158062E+00  2.4623589072758E-01
91  9.0000000000000E-01  1.2428828562630E+00  2.7361078195582E-01
92  9.1000000000000E-01  1.2336723325533E+00  3.0201010013528E-01
93  9.2000000000000E-01  1.2228693458102E+00  3.3143206818555E-01
94  9.3000000000000E-01  1.2104421391914E+00  3.6186937765380E-01
95  9.4000000000000E-01  1.1963647865751E+00  3.9330885582803E-01
96  9.5000000000000E-01  1.1806175563831E+00  4.2573115927906E-01
97  9.6000000000000E-01  1.1631872473763E+00  4.5911049737722E-01
98  9.7000000000000E-01  1.1440674933798E+00  4.9341438922621E-01
99  9.8000000000000E-01  1.1232590340310E+00  5.2860345732161E-01
100  9.9000000000000E-01  1.1007699488066E+00  5.6463126107384E-01
101  1.0000000000000E+00  1.0766158517712E+00  6.0144417313704E-01
102  1.0100000000000E+00  1.0508200446979E+00  6.3898130125600E-01
103  1.0200000000000E+00  1.0234136264490E+00  6.7717445808436E-01
104  1.0300000000000E+00  9.9443555675365E-01  7.1594818113895E-01
105  1.0400000000000E+00  9.6393267279795E-01  7.5521980474232E-01
106  1.0500000000000E+00  9.3195965733409E-01  7.9489958546407E-01
107  1.0600000000000E+00  8.9857895732433E-01  8.3489088221083E-01
108  1.0700000000000E+00  8.6386065246066E-01  8.7509039173090E-01
109  1.0800000000000E+00  8.2788227323700E-01  9.1538843989832E-01
110  1.0900000000000E+00  7.9072856859761E-01  9.5566932872563E-01
111  1.1000000000000E+00  7.5249122354028E-01  9.9581173862547E-01
112  1.1100000000000E+00  7.1326852741209E-01  1.0356891850041E+00
113  1.1200000000000E+00  6.7316499399856E-01  1.0751705278268E+00
114  1.1300000000000E+00  6.3229093486853E-01  1.1141205323501E+00
115  1.1400000000000E+00  5.9076198779688E-01  1.1524004787715E+00
116  1.1500000000000E+00  5.4869860244037E-01  1.1898688181096E+00
117  1.1600000000000E+00  5.0622548578711E-01  1.2263818711967E+00
118  1.1700000000000E+00  4.6347101023343E-01  1.2617945672498E+00
119  1.1800000000000E+00  4.2056658746148E-01  1.2959612180843E+00
120  1.1900000000000E+00  3.7764601159354E-01  1.3287363236523E+00
121  1.2000000000000E+00  3.3484477538146E-01  1.3599754042327E+00
122  1.2100000000000E+00  2.9229936345143E-01  1.3895358542657E+00
123  1.2200000000000E+00  2.5014652685967E-01  1.4172778125274E+00
124  1.2300000000000E+00  2.0852254342551E-01  1.4430650430686E+00
125  1.2400000000000E+00  1.6756246848840E-01  1.4667658211142E+00
126  1.2500000000000E+00  1.2739938088625E-01  1.4882538179253E+00
127  1.2600000000000E+00  8.8163629070068E-02  1.5074089784744E+00
128  1.2700000000000E+00  4.9982082354426E-02  1.5241183856775E+00
129  1.2800000000000E+00  1.2977392352201E-02  1.5382771048620E+00
130  1.2900000000000E+00 -2.2732730344611E-02  1.5497890021346E+00
131  1.3000000000000E+00 -5.7036219199584E-02  1.5585675303422E+00
132  1.3100000000000E+00 -8.9827329503523E-02  1.5645364764000E+00
133  1.3200000000000E+00 -1.2100728600278E-01  1.5676306638863E+00
134  1.3300000000000E+00 -1.5048489563696E-01  1.5677966049816E+00
135  1.3400000000000E+00 -1.7817712081056E-01  1.5649930960515E+00
136  1.3500000000000E+00 -2.0400960882785E-01  1.5591917514455E+00
137  1.3600000000000E+00 -2.2791717336302E-01  1.5503774703987E+00
138  1.3700000000000E+00 -2.4984422410922E-01  1.5385488322857E+00
139  1.3800000000000E+00 -2.6974514105685E-01  1.5237184158763E+00
140  1.3900000000000E+00 -2.8758459018593E-01  1.5059130386864E+00
141  1.4000000000000E+00 -3.0333777771980E-01  1.4851739129952E+00
142  1.4100000000000E+00 -3.1699064047467E-01  1.4615567156118E+00
143  1.4200000000000E+00 -3.2853997024831E-01  1.4351315690166E+00
144  1.4300000000000E+00 -3.3799347062110E-01  1.4059829320700E+00
145  1.4400000000000E+00 -3.4536974498797E-01  1.3742093990720E+00
146  1.4500000000000E+00 -3.5069821509774E-01  1.3399234065660E+00
147  1.4600000000000E+00 -3.5401896984513E-01  1.3032508478972E+00
148  1.4700000000000E+00 -3.5538254453663E-01  1.2643305961724E+00
149  1.4800000000000E+00 -3.5484963132657E-01  1.2233139368954E+00
150  1.4900000000000E+00 -3.5249072200004E-01  1.1803639121921E+00
151  1.5000000000000E+00 -3.4838568474992E-01  1.1356545791633E+00
152  1.5100000000000E+00 -3.4262327706095E-01  1.0893701855196E+00
153  1.5200000000000E+00 -3.3530059726703E-01  1.0417042662587E+00
154  1.5300000000000E+00 -3.2652247778632E-01  9.9285866572004E-01
155  1.5400000000000E+00 -3.1640082345880E-01  9.4304248991393E-01
156  1.5500000000000E+00 -3.0505389880967E-01  8.9247099454535E-01
157  1.5600000000000E+00 -2.9260556843461E-01  8.4136441464629E-01
158  1.5700000000000E+00 -2.7918449504980E-01  7.8994674218601E-01
159  1.5800000000000E+00 -2.6492330004474E-01  7.3844445830018E-01
160  1.5900000000000E+00 -2.4995769166357E-01  6.8708522726296E-01
161  1.6000000000000E+00 -2.3442556749082E-01  6.3609656841687E-01
162  1.6100000000000E+00 -2.1846608981230E-01  5.8570446452795E-01
163  1.6200000000000E+00 -2.0221881550712E-01  5.3613245305541E-01
164  1.6300000000000E+00 -1.8582293193362E-01  4.8760142231541E-01
165  1.6400000000000E+00 -1.6941643639535E-01  4.4032886405651E-01
166  1.6500000000000E+00 -1.5313524939168E-01  3.9452760322822E-01
167  1.6600000000000E+00 -1.3711233956881E-01  3.5040457934660E-01
168  1.6700000000000E+00 -1.2147685998717E-01  3.0815963983859E-01
169  1.6800000000000E+00 -1.0635330221291E-01  2.6798436139810E-01
170  1.6900000000000E+00 -9.1860669489431E-02  2.3006089925808E-01
171  1.7000000000000E+00 -7.8111716423256E-02  1.9456094920096E-01
172  1.7100000000000E+00 -6.5212085802341E-02  1.6164450273532E-01
173  1.7200000000000E+00 -5.3259992600550E-02  1.3145962532332E-01
174  1.7300000000000E+00 -4.2350501627384E-02  1.0415046098174E-01
175  1.7400000000000E+00 -3.2567128310451E-02  7.9842029933702E-02
176  1.7500000000000E+00 -2.3977691120658E-02  5.8633191050724E-02
177  1.7600000000000E+00 -1.6640260903162E-02  4.0607966388351E-02
178  1.7700000000000E+00 -1.0602179569885E-02  2.5833869904608E-02
179  1.7800000000000E+00 -5.9011710348703E-03  1.4364884248443E-02
180  1.7900000000000E+00 -2.5526537964303E-03  6.2108093762886E-03
181  1.8000000000000E+00 -6.0381241026710E-04  1.4690969654473E-03
182  1.8100000000000E+00  1.3356324904811E-05 -3.2629724294493E-05
183  1.8200000000000E+00  1.0252989108547E-06 -2.4969389777281E-06
184  1.83 -0.  0.
185  1.84  0. -0.
186  1.85  0. -0.
187  1.86  0.  0.
188  1.87  0.  0.
189  1.88  0.  0.
190  1.89  0.  0.
191  1.90  0.  0.
192  1.91  0.  0.
193  1.92  0.  0.
194  1.93  0.  0.
195  1.94  0.  0.
196  1.95  0.  0.
197  1.96  0.  0.
198  1.97  0.  0.
199  1.98  0.  0.
200  1.99  0.  0.
201  2.00  0.  0.
202  2.01  0.  0.
203  2.02  0.  0.
204  2.03  0.  0.
205  2.04  0.  0.
206  2.05  0.  0.
207  2.06  0.  0.
208  2.07  0.  0.
209  2.08  0.  0.
210  2.09  0.  0.
211  2.10  0.  0.
212  2.11  0.  0.
213  2.12  0.  0.
214  2.13  0.  0.
215  2.14  0.  0.
216  2.15  0.  0.
217  2.16  0.  0.
218  2.17  0.  0.
219  2.18  0.  0.
220  2.19  0.  0.
221  2.20  0.  0.
222  2.21  0.  0.
223  2.22  0.  0.
224  2.23  0.  0.
225  2.24  0.  0.
226  2.25  0.  0.
227  2.26  0.  0.
228  2.27  0.  0.
229  2.28  0.  0.
230  2.29  0.  0.
231  2.30  0.  0.
232  2.31  0.  0.
233  2.32  0.  0.
234  2.33  0.  0.
235  2.34  0.  0.
236  2.35  0.  0.
237  2.36  0.  0.
238  2.37  0.  0.
239  2.38  0.  0.
240  2.39  0.  0.
241  2.40  0.  0.
242  2.41  0.  0.
243  2.42  0.  0.
244  2.43  0.  0.
245  2.44  0.  0.
246  2.45  0.  0.
247  2.46  0.  0.
248  2.47  0.  0.
249  2.48  0.  0.
250  2.49  0.  0.
251  2.50  0.  0.
252  2.51  0.  0.
253  2.52  0.  0.
254  2.53  0.  0.
255  2.54  0.  0.
256  2.55  0.  0.
257  2.56  0.  0.
258  2.57  0.  0.
259  2.58  0.  0.
260  2.59  0.  0.
261  2.60  0.  0.
262  2.61  0.  0.
263  2.62  0.  0.
264  2.63  0.  0.
265  2.64  0.  0.
266  2.65  0.  0.
267  2.66  0.  0.
268  2.67  0.  0.
269  2.68  0.  0.
270  2.69  0.  0.
271  2.70  0.  0.
272  2.71  0.  0.
273  2.72  0.  0.
274  2.73  0.  0.
275  2.74  0.  0.
276  2.75  0.  0.
277  2.76  0.  0.
278  2.77  0.  0.
279  2.78  0.  0.
280  2.79  0.  0.
281  2.80  0.  0.
282  2.81  0.  0.
283  2.82  0.  0.
284  2.83  0.  0.
285  2.84  0.  0.
286  2.85  0.  0.
287  2.86  0.  0.
288  2.87  0.  0.
289  2.88  0.  0.
290  2.89  0.  0.
291  2.90  0.  0.
292  2.91  0.  0.
293  2.92  0.  0.
294  2.93  0.  0.
295  2.94  0.  0.
296  2.95  0.  0.
297  2.96  0.  0.
298  2.97  0.  0.
299  2.98  0.  0.
300  2.99  0.  0.
301  3.00  0.  0.
302  3.01  0.  0.
303  3.02  0.  0.
304  3.03  0.  0.
305  3.04  0.  0.
306  3.05  0.  0.
307  3.06  0.  0.
308  3.07  0.  0.
309  3.08  0.  0.
310  3.09  0.  0.
311  3.10  0.  0.
312  3.11  0.  0.
313  3.12  0.  0.
314  3.13  0.  0.
315  3.14  0.  0.
316  3.15  0.  0.
317  3.16  0.  0.
318  3.17  0.  0.
319  3.18  0.  0.
320  3.19  0.  0.
321  3.20  0.  0.
322  3.21  0.  0.
323  3.22  0.  0.
324  3.23  0.  0.
325  3.24  0.  0.
326  3.25  0.  0.
327  3.26  0.  0.
328  3.27  0.  0.
329  3.28  0.  0.
330  3.29  0.  0.
331  3.30  0.  0.
332  3.31  0.  0.
333  3.32  0.  0.
334  3.33  0.  0.
335  3.34  0.  0.
336  3.35  0.  0.
337  3.36  0.  0.
338  3.37  0.  0.
339  3.38  0.  0.
340  3.39  0.  0.
341  3.40  0.  0.
342  3.41  0.  0.
343  3.42  0.  0.
344  3.43  0.  0.
345  3.44  0.  0.
346  3.45  0.  0.
347  3.46  0.  0.
348  3.47  0.  0.
349  3.48  0.  0.
350  3.49  0.  0.
351  3.50  0.  0.
352  3.51  0.  0.
353  3.52  0.  0.
354  3.53  0.  0.
355  3.54  0.  0.
356  3.55  0.  0.
357  3.56  0.  0.
358  3.57  0.  0.
359  3.58  0.  0.
360  3.59  0.  0.
361  3.60  0.  0.
362  3.61  0.  0.
363  3.62  0.  0.
364  3.63  0.  0.
365  3.64  0.  0.
366  3.65  0.  0.
367  3.66  0.  0.
368  3.67  0.  0.
369  3.68  0.  0.
370  3.69  0.  0.
371  3.70  0.  0.
372  3.71  0.  0.
373  3.72  0.  0.
374  3.73  0.  0.
375  3.74  0.  0.
376  3.75  0.  0.
377  3.76  0.  0.
378  3.77  0.  0.
379  3.78  0.  0.
380  3.79  0.  0.
381  3.80  0.  0.
382  3.81  0.  0.
383  3.82  0.  0.
384  3.83  0.  0.
385  3.84  0.  0.
386  3.85  0.  0.
387  3.86  0.  0.
388  3.87  0.  0.
389  3.88  0.  0.
390  3.89  0.  0.
391  3.90  0.  0.
392  3.91  0.  0.
393  3.92  0.  0.
394  3.93  0.  0.
395  3.94  0.  0.
396  3.95  0.  0.
397  3.96  0.  0.
398  3.97  0.  0.
399  3.98  0.  0.
400  3.99  0.  0.
401  4.00  0.  0.
402  4.01  0.  0.
403  4.02  0.  0.
404  4.03  0.  0.
405  4.04  0.  0.
406  4.05  0.  0.
407  4.06  0.  0.
408  4.07  0.  0.
409  4.08  0.  0.
410  4.09  0.  0.
411  4.10  0.  0.
412  4.11  0.  0.
413  4.12  0.  0.
414  4.13  0.  0.
415  4.14  0.  0.
416  4.15  0.  0.
417  4.16  0.  0.
418  4.17  0.  0.
419  4.18  0.  0.
420  4.19  0.  0.
421  4.20  0.  0.
422  4.21  0.  0.
423  4.22  0.  0.
424  4.23  0.  0.
425  4.24  0.  0.
426  4.25  0.  0.
427  4.26  0.  0.
428  4.27  0.  0.
429  4.28  0.  0.
430  4.29  0.  0.
431  4.30  0.  0.
432  4.31  0.  0.
433  4.32  0.  0.
434  4.33  0.  0.
435  4.34  0.  0.
436  4.35  0.  0.
437  4.36  0.  0.
438  4.37  0.  0.
439  4.38  0.  0.
440  4.39  0.  0.
441  4.40  0.  0.
442  4.41  0.  0.
443  4.42  0.  0.
444  4.43  0.  0.
445  4.44  0.  0.
446  4.45  0.  0.
447  4.46  0.  0.
448  4.47  0.  0.
449  4.48  0.  0.
450  4.49  0.  0.
451  4.50  0.  0.
452  4.51  0.  0.
453  4.52  0.  0.
454  4.53  0.  0.
455  4.54  0.  0.
456  4.55  0.  0.
457  4.56  0.  0.
458  4.57  0.  0.
459  4.58  0.  0.
460  4.59  0.  0.
461  4.60  0.  0.
462  4.61  0.  0.
463  4.62  0.  0.
464  4.63  0.  0.
465  4.64  0.  0.
466  4.65  0.  0.
467  4.66  0.  0.
468  4.67  0.  0.
469  4.68  0.  0.
470  4.69  0.  0.
471  4.70  0.  0.
472  4.71  0.  0.
473  4.72  0.  0.
474  4.73  0.  0.
475  4.74  0.  0.
476  4.75  0.  0.
477  4.76  0.  0.
478  4.77  0.  0.
479  4.78  0.  0.
480  4.79  0.  0.
481  4.80  0.  0.
482  4.81  0.  0.
483  4.82  0.  0.
484  4.83  0.  0.
485  4.84  0.  0.
486  4.85  0.  0.
487  4.86  0.  0.
488  4.87  0.  0.
489  4.88  0.  0.
490  4.89  0.  0.
491  4.90  0.  0.
492  4.91  0.  0.
493  4.92  0.  0.
494  4.93  0.  0.
495  4.94  0.  0.
496  4.95  0.  0.
497  4.96  0.  0.
498  4.97  0.  0.
499  4.98  0.  0.
500  4.99  0.  0.
501  5.00  0.  0.
502  5.01  0.  0.
503  5.02  0.  0.
504  5.03  0.  0.
505  5.04  0.  0.
506  5.05  0.  0.
507  5.06  0.  0.
508  5.07  0.  0.
509  5.08  0.  0.
510  5.09  0.  0.
511  5.10  0.  0.
512  5.11  0.  0.
513  5.12  0.  0.
514  5.13  0.  0.
515  5.14  0.  0.
516  5.15  0.  0.
517  5.16  0.  0.
518  5.17  0.  0.
519  5.18  0.  0.
520  5.19  0.  0.
521  5.20  0.  0.
522  5.21  0.  0.
523  5.22  0.  0.
524  5.23  0.  0.
525  5.24  0.  0.
526  5.25  0.  0.
527  5.26  0.  0.
528  5.27  0.  0.
529  5.28  0.  0.
530  5.29  0.  0.
531  5.30  0.  0.
532  5.31  0.  0.
533  5.32  0.  0.
534  5.33  0.  0.
535  5.34  0.  0.
536  5.35  0.  0.
537  5.36  0.  0.
538  5.37  0.  0.
539  5.38  0.  0.
540  5.39  0.  0.
541  5.40  0.  0.
542  5.41  0.  0.
543  5.42  0.  0.
544  5.43  0.  0.
545  5.44  0.  0.
546  5.45  0.  0.
547  5.46  0.  0.
548  5.47  0.  0.
549  5.48  0.  0.
550  5.49  0.  0.
551  5.50  0.  0.
552  5.51  0.  0.
553  5.52  0.  0.
554  5.53  0.  0.
555  5.54  0.  0.
556  5.55  0.  0.
557  5.56  0.  0.
558  5.57  0.  0.
559  5.58  0.  0.
560  5.59  0.  0.
561  5.60  0.  0.
562  5.61  0.  0.
563  5.62  0.  0.
564  5.63  0.  0.
565  5.64  0.  0.
566  5.65  0.  0.
567  5.66  0.  0.
568  5.67  0.  0.
569  5.68  0.  0.
570  5.69  0.  0.
571  5.70  0.  0.
572  5.71  0.  0.
573  5.72  0.  0.
574  5.73  0.  0.
575  5.74  0.  0.
576  5.75  0.  0.
577  5.76  0.  0.
578  5.77  0.  0.
579  5.78  0.  0.
580  5.79  0.  0.
581  5.80  0.  0.
582  5.81  0.  0.
583  5.82  0.  0.
584  5.83  0.  0.
585  5.84  0.  0.
586  5.85  0.  0.
587  5.86  0.  0.
588  5.87  0.  0.
589  5.88  0.  0.
590  5.89  0.  0.
591  5.90  0.  0.
592  5.91  0.  0.
593  5.92  0.  0.
594  5.93  0.  0.
595  5.94  0.  0.
596  5.95  0.  0.
597  5.96  0.  0.
598  5.97  0.  0.
599  5.98  0.  0.
600  5.99  0.  0.
1                         5.4914953944111E+00  7.0138339770601E-01
1  0.0000000000000E+00 -3.3242568767133E-10  8.0361462276302E-10
2  1.0000000000000E-02  1.0907712248374E-04  3.2516775432917E-04
3  2.0000000000000E-02  4.3848183461912E-04  1.2951788948580E-03
4  3.0000000000000E-02  9.9471227426469E-04  2.8936094762425E-03
5  4.0000000000000E-02  1.7885258603578E-03  5.0932605694873E-03
6  5.0000000000000E-02  2.8348306930428E-03  7.8564182410240E-03
7  6.0000000000000E-02  4.1525347419247E-03  1.1135214553221E-02
8  7.0000000000000E-02  5.7643540397271E-03  1.4872086642433E-02
9  8.0000000000000E-02  7.6965814310592E-03  1.9000330127088E-02
10  9.0000000000000E-02  9.9788177470355E-03  2.3444742322415E-02
11  1.0000000000000E-01  1.2643667583776E-02  2.8122349996082E-02
12  1.1000000000000E-01  1.5726402154065E-02  3.2943215695780E-02
13  1.2000000000000E-01  1.9264591954419E-02  3.7811316021087E-02
14  1.3000000000000E-01  2.3297712242554E-02  4.2625484602576E-02
15  1.4000000000000E-01  2.7866724550690E-02  4.7280411996070E-02
16  1.5000000000000E-01  3.3013637666648E-02  5.1667694203268E-02
17  1.6000000000000E-01  3.8781051695516E-02  5.5676921095804E-02
18  1.7000000000000E-01  4.5211688968467E-02  5.9196795651547E-02
19  1.8000000000000E-01  5.2347915690738E-02  6.2116274612746E-02
20  1.9000000000000E-01  6.0231258316829E-02  6.4325720948035E-02
21  2.0000000000000E-01  6.8901918706717E-02  6.5718058346490E-02
22  2.1000000000000E-01  7.8398292151687E-02  6.6189917893398E-02
23  2.2000000000000E-01  8.8756492361830E-02  6.5642767075238E-02
24  2.3000000000000E-01  1.0000988747899E-01  6.3984011336249E-02
25  2.4000000000000E-01  1.1218865111923E-01  6.1128058560572E-02
26  2.5000000000000E-01  1.2531933235750E-01  5.6997337082000E-02
27  2.6000000000000E-01  1.3942444844536E-01  5.1523258126575E-02
28  2.7000000000000E-01  1.5452210389978E-01  4.4647113969891E-02
29  2.8000000000000E-01  1.7062563941965E-01  3.6320903538982E-02
30  2.9000000000000E-01  1.8774331387656E-01  2.6508077704959E-02
31  3.0000000000000E-01  2.0587802238941E-01  1.5184197094176E-02
32  3.1000000000000E-01  2.2502705323039E-01  2.3374958884922E-03
33  3.2000000000000E-01  2.4518188602428E-01 -1.2030654214913E-02
34  3.3000000000000E-01  2.6632803339519E-01 -2.7905384961733E-02
35  3.4000000000000E-01  2.8844492788861E-01 -4.5258081695216E-02
36  3.5000000000000E-01  3.1150585565237E-01 -6.4046246145546E-02
37  3.6000000000000E-01  3.3547793800113E-01 -8.4213474416477E-02
38  3.7000000000000E-01  3.6032216161878E-01 -1.0568955182717E-01
39  3.8000000000000E-01  3.8599345777217E-01 -1.2839066534036E-01
40  3.9000000000000E-01  4.1244083052315E-01 -1.5221973336569E-01
41  4.0000000000000E-01  4.3960753353526E-01 -1.7706685177649E-01
42  4.1000000000000E-01  4.6743129467981E-01 -2.0280985402692E-01
43  4.2000000000000E-01  4.9584458725752E-01 -2.2931498231092E-01
44  4.3000000000000E-01  5.2477494626788E-01 -2.5643766577346E-01
45  4.4000000000000E-01  5.5414532778307E-01 -2.8402340087399E-01
46  4.5000000000000E-01  5.8387450911961E-01 -3.1190872812082E-01
47  4.6000000000000E-01  6.1387752715079E-01 -3.3992229854907E-01
48  4.7000000000000E-01  6.4406615177105E-01 -3.6788602251224E-01
49  4.8000000000000E-01  6.7434939121074E-01 -3.9561629260403E-01
50  4.9000000000000E-01  7.0463402561022E-01 -4.2292527183045E-01
51  5.0000000000000E-01  7.3482516499788E-01 -4.4962223751756E-01
52  5.1000000000000E-01  7.6482682757996E-01 -4.7551497087444E-01
53  5.2000000000000E-01  7.9454253404311E-01 -5.0041118163829E-01
54  5.3000000000000E-01  8.2387591339586E-01 -5.2411995681473E-01
55  5.4000000000000E-01  8.5273131573366E-01 -5.4645322219541E-01
56  5.5000000000000E-01  8.8101442720616E-01 -5.6722720509028E-01
57  5.6000000000000E-01  9.0863288239573E-01 -5.8626388655743E-01
58  5.7000000000000E-01  9.3549686928411E-01 -6.0339243135021E-01
59  5.8000000000000E-01  9.6151972199013E-01 -6.1845058383288E-01
60  5.9000000000000E-01  9.8661849650640E-01 -6.3128601824174E-01
61  6.0000000000000E-01  1.0107145247462E+00 -6.4175763188989E-01
62  6.1000000000000E-01  1.0337339423346E+00 -6.4973677022945E-01
63  6.2000000000000E-01  1.0556081857372E+00 -6.5510837309438E-01
64  6.3000000000000E-01  1.0762744545192E+00 -6.5777203194740E-01
65  6.4000000000000E-01  1.0956761347602E+00 -6.5764294854360E-01
66  6.5000000000000E-01  1.1137631799197E+00 -6.5465278609763E-01
67  6.6000000000000E-01  1.1304924457502E+00 -6.4875040479602E-01
68  6.7000000000000E-01  1.1458279761877E+00 -6.3990247432695E-01
69  6.8000000000000E-01  1.1597412375111E+00 -6.2809395700025E-01
70  6.9000000000000E-01  1.1722112984519E+00 -6.1332845599470E-01
71  7.0000000000000E-01  1.1832249543430E+00 -5.9562842429059E-01
72  7.1000000000000E-01  1.1927767938324E+00 -5.7503523091555E-01
73  7.2000000000000E-01  1.2008692071330E+00 -5.5160908224261E-01
74  7.3000000000000E-01  1.2075123352429E+00 -5.2542879722297E-01
75  7.4000000000000E-01  1.2127239600442E+00 -4.9659143660326E-01
76  7.5000000000000E-01  1.2165293356657E+00 -4.6521178735816E-01
77  7.6000000000000E-01  1.2189609619775E+00 -4.3142170475577E-01
78  7.7000000000000E-01  1.2200583015640E+00 -3.9536931565436E-01
79  7.8000000000000E-01  1.2198674419956E+00 -3.5721808779572E-01
80  7.9000000000000E-01  1.2184407056860E+00 -3.1714577100252E-01
81  8.0000000000000E-01  1.2158362100694E+00 -2.7534321729505E-01
82  8.1000000000000E-01  1.2121173812703E+00 -2.3201308800664E-01
83  8.2000000000000E-01  1.2073524248459E+00 -1.8736845698779E-01
84  8.3000000000000E-01  1.2016137575720E+00 -1.4163131993749E-01
85  8.4000000000000E-01  1.1949774046016E+00 -9.5031020777661E-02
86  8.5000000000000E-01  1.1875223666512E+00 -4.7802606784571E-02
87  8.6000000000000E-01  1.1793299621626E+00 -1.8512490249846E-04
88  8.7000000000000E-01  1.1704831496445E+00  4.7580127717867E-02
89  8.8000000000000E-01  1.1610658356064E+00  9.5251385396760E-02
90  8.9000000000000E-01  1.1511621736761E+00  1.4258821384789E-01
91  9.0000000000000E-01  1.1408558606111E+00  1.8935331407504E-01
92  9.1000000000000E-01  1.1302294349992E+00  2.3531431578575E-01
93  9.2000000000000E-01  1.1193635844755E+00  2.8024554579667E-01
94  9.3000000000000E-01  1.1083364672633E+00  3.2392975695630E-01
95  9.4000000000000E-01  1.0972230537886E+00  3.6615980328261E-01
96  9.5000000000000E-01  1.0860944939973E+00  4.0674024730532E-01
97  9.6000000000000E-01  1.0750175158479E+00  4.4548888601460E-01
98  9.7000000000000E-01  1.0640538602386E+00  4.8223818234721E-01
99  9.8000000000000E-01  1.0532597573752E+00  5.1683658978570E-01
100  9.9000000000000E-01  1.0426854492823E+00  5.4914975839969E-01
101  1.0000000000000E+00  1.0323747628176E+00  5.7906161151886E-01
102  1.0100000000000E+00  1.0223647371673E+00  6.0647528318582E-01
103  1.0200000000000E+00  1.0126853093743E+00  6.3131390758827E-01
104  1.0300000000000E+00  1.0033590609994E+00  6.5352125280556E-01
105  1.0400000000000E+00  9.9440102852685E-01  6.7306219241651E-01
106  1.0500000000000E+00  9.8581857961148E-01  6.8992300979268E-01
107  1.0600000000000E+00  9.7761135672871E-01  7.0411153123525E-01
108  1.0700000000000E+00  9.6977128923276E-01  7.1565708549416E-01
109  1.0800000000000E+00  9.6228267425929E-01  7.2461028861953E-01
110  1.0900000000000E+00  9.5512232632899E-01  7.3104265453471E-01
111  1.1000000000000E+00  9.4825979492645E-01  7.3504603316414E-01
112  1.1100000000000E+00  9.4165764874475E-01  7.3673187939646E-01
113  1.1200000000000E+00  9.3527182470930E-01  7.3623035759350E-01
114  1.1300000000000E+00  9.2905203932774E-01  7.3368928776028E-01
115  1.1400000000000E+00  9.2294225936058E-01  7.2927294085826E-01
116  1.1500000000000E+00  9.1688122827708E-01  7.2316069205809E-01
117  1.1600000000000E+00  9.1080304445434E-01  7.1554554198225E-01
118  1.1700000000000E+00  9.0463778660163E-01  7.0663251716579E-01
119  1.1800000000000E+00  8.9831218145025E-01  6.9663696205851E-01
120  1.1900000000000E+00  8.9175030834499E-01  6.8578273589126E-01
121  1.2000000000000E+00  8.8487433501253E-01  6.7430032862312E-01
122  1.2100000000000E+00  8.7760527846533E-01  6.6242491097047E-01
123  1.2200000000000E+00  8.6986378473367E-01  6.5039433417712E-01
124  1.2300000000000E+00  8.6157092090211E-01  6.3844709572165E-01
125  1.2400000000000E+00  8.5264897276596E-01  6.2682028755571E-01
126  1.2500000000000E+00  8.4302224131749E-01  6.1574754373114E-01
127  1.2600000000000E+00  8.3261783122332E-01  6.0545700439374E-01
128  1.2700000000000E+00  8.2136642446463E-01  5.9616931309913E-01
129  1.2800000000000E+00  8.0920303237989E-01  5.8809566423881E-01
130  1.2900000000000E+00  7.9606771947775E-01  5.8143591705117E-01
131  1.3000000000000E+00  7.8190629257218E-01  5.7637679223847E-01
132  1.3100000000000E+00  7.6667094903406E-01  5.7309016661501E-01
133  1.3200000000000E+00  7.5032087825132E-01  5.7173148047891E-01
134  1.3300000000000E+00  7.3282281073990E-01  5.7243827153644E-01
135  1.3400000000000E+00  7.1415150974785E-01  5.7532884822447E-01
136  1.3500000000000E+00  6.9429020064530E-01  5.8050111416565E-01
137  1.3600000000000E+00  6.7323093388428E-01  5.8803155428178E-01
138  1.3700000000000E+00  6.5097487784598E-01  5.9797439177662E-01
139  1.3800000000000E+00  6.2753253845973E-01  6.1036092380291E-01
140  1.3900000000000E+00  6.0292390308030E-01  6.2519904214523E-01
141  1.4000000000000E+00  5.7717850673406E-01  6.4247294371387E-01
142  1.4100000000000E+00  5.5033541949272E-01  6.6214303404780E-01
143  1.4200000000000E+00  5.2244315439404E-01  6.8414602539781E-01
144  1.4300000000000E+00  4.9355949600331E-01  7.0839522930067E-01
145  1.4400000000000E+00  4.6375125038518E-01  7.3478104189019E-01
146  1.4500000000000E+00  4.3309391793041E-01  7.6317161852944E-01
147  1.4600000000000E+00  4.0167129114944E-01  7.9341373270482E-01
148  1.4700000000000E+00  3.6957498020070E-01  8.2533381250821E-01
149  1.4800000000000E+00  3.3690386955330E-01  8.5873914647704E-01