Sb    ONCVPSP-4.0.1  r_core=   1.30202   1.30202   1.50304   1.60527
51.0000     23.0000      220201    zatom,zion,pspd
8      11   3     4   600     0    pspcod,pspxc,lmax,lloc,mmax,r2well
5.99000000  5.00000000  0.00000000    rchrg fchrg qchrg
2     2     2     2     0    nproj
1     1           extension_switch
0                         9.4799570478827E+00 -4.4940192275309E-01
1  0.0000000000000E+00  1.0719647391966E-09  4.0391341715740E-08
2  1.0000000000000E-02  8.6084692853889E-02  3.3233578006631E-02
3  2.0000000000000E-02  1.7195620166636E-01  6.6711221068735E-02
4  3.0000000000000E-02  2.5740159051615E-01  1.0066337376793E-01
5  4.0000000000000E-02  3.4220842939408E-01  1.3529364241513E-01
6  5.0000000000000E-02  4.2616507105311E-01  1.7076637182338E-01
7  6.0000000000000E-02  5.0906095573928E-01  2.0719538725369E-01
8  7.0000000000000E-02  5.9068695179811E-01  2.4463424089208E-01
9  8.0000000000000E-02  6.7083573907934E-01  2.8306826182521E-01
10  9.0000000000000E-02  7.4930224077308E-01  3.2240865998892E-01
11  1.0000000000000E-01  8.2588410783625E-01  3.6248887922772E-01
12  1.1000000000000E-01  9.0038225854401E-01  4.0306333385792E-01
13  1.2000000000000E-01  9.7260147396887E-01  4.4380859855219E-01
14  1.3000000000000E-01  1.0423510483926E+00  4.8432705464196E-01
15  1.4000000000000E-01  1.1094454918372E+00  5.2415292880480E-01
16  1.5000000000000E-01  1.1737052801092E+00  5.6276059432915E-01
17  1.6000000000000E-01  1.2349576460245E+00  5.9957494245349E-01
18  1.7000000000000E-01  1.2930374038755E+00  6.3398357331843E-01
19  1.8000000000000E-01  1.3477877977415E+00  6.6535050438892E-01
20  1.9000000000000E-01  1.3990613629802E+00  6.9303105018176E-01
21  2.0000000000000E-01  1.4467207891985E+00  7.1638749196594E-01
22  2.1000000000000E-01  1.4906397722091E+00  7.3480513075685E-01
23  2.2000000000000E-01  1.5307038419637E+00  7.4770830212482E-01
24  2.3000000000000E-01  1.5668111532264E+00  7.5457592753121E-01
25  2.4000000000000E-01  1.5988732258147E+00  7.5495618426718E-01
26  2.5000000000000E-01  1.6268156216024E+00  7.4847989448195E-01
27  2.6000000000000E-01  1.6505785461302E+00  7.3487226284798E-01
28  2.7000000000000E-01  1.6701173636019E+00  7.1396263143893E-01
29  2.8000000000000E-01  1.6854030152329E+00  6.8569196845303E-01
30  2.9000000000000E-01  1.6964223323361E+00  6.5011786331574E-01
31  3.0000000000000E-01  1.7031782371498E+00  6.0741686305227E-01
32  3.1000000000000E-01  1.7056898261940E+00  5.5788405206014E-01
33  3.2000000000000E-01  1.7039923328459E+00  5.0192984783183E-01
34  3.3000000000000E-01  1.6981369678064E+00  4.4007405697170E-01
35  3.4000000000000E-01  1.6881906381510E+00  3.7293730716877E-01
36  3.5000000000000E-01  1.6742355476566E+00  3.0123003977319E-01
37  3.6000000000000E-01  1.6563686830477E+00  2.2573931246522E-01
38  3.7000000000000E-01  1.6347011926456E+00  1.4731372048344E-01
39  3.8000000000000E-01  1.6093576656040E+00  6.6846796408337E-02
40  3.9000000000000E-01  1.5804753214329E+00 -1.4740708830971E-02
41  4.0000000000000E-01  1.5482031208100E+00 -9.6519228433349E-02
42  4.1000000000000E-01  1.5127008097371E+00 -1.7756900876209E-01
43  4.2000000000000E-01  1.4741379098854E+00 -2.5699849804949E-01
44  4.3000000000000E-01  1.4326926684798E+00 -3.3396202995292E-01
45  4.4000000000000E-01  1.3885509812859E+00 -4.0767635133078E-01
46  4.5000000000000E-01  1.3419053021834E+00 -4.7743556966486E-01
47  4.6000000000000E-01  1.2929535524414E+00 -5.4262413293573E-01
48  4.7000000000000E-01  1.2418980421706E+00 -6.0272750261473E-01
49  4.8000000000000E-01  1.1889444155253E+00 -6.5734023764507E-01
50  4.9000000000000E-01  1.1343006301041E+00 -7.0617127246628E-01
51  5.0000000000000E-01  1.0781759796699E+00 -7.4904624369224E-01
52  5.1000000000000E-01  1.0207801678192E+00 -7.8590679620218E-01
53  5.2000000000000E-01  9.6232243862421E-01 -8.1680687822405E-01
54  5.3000000000000E-01  9.0301076857781E-01 -8.4190611447131E-01
55  5.4000000000000E-01  8.4305112245004E-01 -8.6146042448110E-01
56  5.5000000000000E-01  7.8264677395140E-01 -8.7581012795510E-01
57  5.6000000000000E-01  7.2199769044316E-01 -8.8536584814093E-01
58  5.7000000000000E-01  6.6129997937860E-01 -8.9059258625120E-01
59  5.8000000000000E-01  6.0074539274376E-01 -8.9199239289279E-01
60  5.9000000000000E-01  5.4052088452757E-01 -8.9008610498250E-01
61  6.0000000000000E-01  4.8080821522174E-01 -8.8539464740963E-01
62  6.1000000000000E-01  4.2178359655593E-01 -8.7842041681604E-01
63  6.2000000000000E-01  3.6361736913437E-01 -8.6962926964833E-01
64  6.3000000000000E-01  3.0647370536768E-01 -8.5943362778807E-01
65  6.4000000000000E-01  2.5051033009539E-01 -8.4817719260860E-01
66  6.5000000000000E-01  1.9587825156737E-01 -8.3612172262872E-01
67  6.6000000000000E-01  1.4272149598749E-01 -8.2343628175322E-01
68  6.7000000000000E-01  9.1176839603534E-02 -8.1018930546569E-01
69  6.8000000000000E-01  4.1373533330284E-02 -7.9634376263351E-01
70  6.9000000000000E-01 -6.5669839121446E-03 -7.8175561243327E-01
71  7.0000000000000E-01 -5.2531385610032E-02 -7.6617567119467E-01
72  7.1000000000000E-01 -9.6414772813516E-02 -7.4925491475391E-01
73  7.2000000000000E-01 -1.3812100349213E-01 -7.3055315043927E-01
74  7.3000000000000E-01 -1.7756303396964E-01 -7.0955090137507E-01
75  7.4000000000000E-01 -2.1466326876816E-01 -6.8566425674017E-01
76  7.5000000000000E-01 -2.4935391370752E-01 -6.5826235727297E-01
77  7.6000000000000E-01 -2.8157732573476E-01 -6.2668710789864E-01
78  7.7000000000000E-01 -3.1128635174531E-01 -5.9027464097470E-01
79  7.8000000000000E-01 -3.3844464764052E-01 -5.4837799619149E-01
80  7.9000000000000E-01 -3.6302696808260E-01 -5.0039043828096E-01
81  8.0000000000000E-01 -3.8501941688586E-01 -4.4576880273021E-01
82  8.1000000000000E-01 -4.0441964774636E-01 -3.8405624369995E-01
83  8.2000000000000E-01 -4.2123700507626E-01 -3.1490375797026E-01
84  8.3000000000000E-01 -4.3549259508106E-01 -2.3808987426349E-01
85  8.4000000000000E-01 -4.4721927789872E-01 -1.5353792861434E-01
86  8.5000000000000E-01 -4.5646157259938E-01 -6.1330393059103E-02
87  8.6000000000000E-01 -4.6327546810706E-01  3.8280214099448E-02
88  8.7000000000000E-01 -4.6772813462479E-01  1.4486423410249E-01
89  8.8000000000000E-01 -4.6989753189139E-01  2.5781190168866E-01
90  8.9000000000000E-01 -4.6987191253094E-01  3.7633472411984E-01
91  9.0000000000000E-01 -4.6774922083257E-01  4.9947131970659E-01
92  9.1000000000000E-01 -4.6363638946758E-01  6.2609772281400E-01
93  9.2000000000000E-01 -4.5764853886161E-01  7.5494205250508E-01
94  9.3000000000000E-01 -4.4990808613663E-01  8.8460333244803E-01
95  9.4000000000000E-01 -4.4054377266432E-01  1.0135741431791E+00
96  9.5000000000000E-01 -4.2968962127544E-01  1.1402666869390E+00
97  9.6000000000000E-01 -4.1748383599448E-01  1.2630417526406E+00
98  9.7000000000000E-01 -4.0406765876611E-01  1.3802399865016E+00
99  9.8000000000000E-01 -3.8958419896503E-01  1.4902148046370E+00
100  9.9000000000000E-01 -3.7417725249289E-01  1.5913662293606E+00
101  1.0000000000000E+00 -3.5799012793564E-01  1.6821748926163E+00
102  1.0100000000000E+00 -3.4116449755395E-01  1.7612354290713E+00
103  1.0200000000000E+00 -3.2383929079539E-01  1.8272884786939E+00
104  1.0300000000000E+00 -3.0614964754236E-01  1.8792505344340E+00
105  1.0400000000000E+00 -2.8822594744499E-01  1.9162409048869E+00
106  1.0500000000000E+00 -2.7019293044942E-01  1.9376051138926E+00
107  1.0600000000000E+00 -2.5216892203782E-01  1.9429341279630E+00
108  1.0700000000000E+00 -2.3426517477561E-01  1.9320788869461E+00
109  1.0800000000000E+00 -2.1658533556131E-01  1.9051597112268E+00
110  1.0900000000000E+00 -1.9922504552603E-01  1.8625702685468E+00
111  1.1000000000000E+00 -1.8227167690309E-01  1.8049759019617E+00
112  1.1100000000000E+00 -1.6580420842640E-01  1.7333062455291E+00
113  1.1200000000000E+00 -1.4989323798863E-01  1.6487421827676E+00
114  1.1300000000000E+00 -1.3460112846075E-01  1.5526973317939E+00
115  1.1400000000000E+00 -1.1998227980093E-01  1.4467943676039E+00
116  1.1500000000000E+00 -1.0608351793904E-01  1.3328366126802E+00
117  1.1600000000000E+00 -9.2944588460549E-02  1.2127754397516E+00
118  1.1700000000000E+00 -8.0598740902586E-02  1.0886741317595E+00
119  1.1800000000000E+00 -6.9073387556780E-02  9.6266893190027E-01
120  1.1900000000000E+00 -5.8390819100733E-02  8.3692808863267E-01
121  1.2000000000000E+00 -4.8568958191055E-02  7.1360975490009E-01
122  1.2100000000000E+00 -3.9622131370876E-02  5.9481963637121E-01
123  1.2200000000000E+00 -3.1561841637207E-02  4.8256925299975E-01
124  1.2300000000000E+00 -2.4397502173742E-02  3.7873604436209E-01
125  1.2400000000000E+00 -1.8137729914463E-02  2.8501359559098E-01
126  1.2500000000000E+00 -1.2795093002431E-02  2.0277950169427E-01
127  1.2600000000000E+00 -8.3744537356517E-03  1.3332777334323E-01
128  1.2700000000000E+00 -4.8795515922259E-03  7.7737122799709E-02
129  1.2800000000000E+00 -2.3166531523925E-03  3.6787797045607E-02
130  1.2900000000000E+00 -6.8918136102724E-04  1.0867650573419E-02
131  1.3000000000000E+00 -3.2579473799670E-05  5.0788703246313E-04
132  1.3100000000000E+00 -3.8960012467861E-07  6.0883399858129E-06
133  1.3200000000000E+00  6.4757165702058E-07 -1.0165034134787E-05
134  1.33 -0. -0.
135  1.34  0.  0.
136  1.35  0.  0.
137  1.36  0.  0.
138  1.37  0.  0.
139  1.38  0.  0.
140  1.39  0.  0.
141  1.40  0.  0.
142  1.41  0.  0.
143  1.42  0.  0.
144  1.43  0.  0.
145  1.44  0.  0.
146  1.45  0.  0.
147  1.46  0.  0.
148  1.47  0.  0.
149  1.48  0.  0.
150  1.49  0.  0.
151  1.50  0.  0.
152  1.51  0.  0.
153  1.52  0.  0.
154  1.53  0.  0.
155  1.54  0.  0.
156  1.55  0.  0.
157  1.56  0.  0.
158  1.57  0.  0.
159  1.58  0.  0.
160  1.59  0.  0.
161  1.60  0.  0.
162  1.61  0.  0.
163  1.62  0.  0.
164  1.63  0.  0.
165  1.64  0.  0.
166  1.65  0.  0.
167  1.66  0.  0.
168  1.67  0.  0.
169  1.68  0.  0.
170  1.69  0.  0.
171  1.70  0.  0.
172  1.71  0.  0.
173  1.72  0.  0.
174  1.73  0.  0.
175  1.74  0.  0.
176  1.75  0.  0.
177  1.76  0.  0.
178  1.77  0.  0.
179  1.78  0.  0.
180  1.79  0.  0.
181  1.80  0.  0.
182  1.81  0.  0.
183  1.82  0.  0.
184  1.83  0.  0.
185  1.84  0.  0.
186  1.85  0.  0.
187  1.86  0.  0.
188  1.87  0.  0.
189  1.88  0.  0.
190  1.89  0.  0.
191  1.90  0.  0.
192  1.91  0.  0.
193  1.92  0.  0.
194  1.93  0.  0.
195  1.94  0.  0.
196  1.95  0.  0.
197  1.96  0.  0.
198  1.97  0.  0.
199  1.98  0.  0.
200  1.99  0.  0.
201  2.00  0.  0.
202  2.01  0.  0.
203  2.02  0.  0.
204  2.03  0.  0.
205  2.04  0.  0.
206  2.05  0.  0.
207  2.06  0.  0.
208  2.07  0.  0.
209  2.08  0.  0.
210  2.09  0.  0.
211  2.10  0.  0.
212  2.11  0.  0.
213  2.12  0.  0.
214  2.13  0.  0.
215  2.14  0.  0.
216  2.15  0.  0.
217  2.16  0.  0.
218  2.17  0.  0.
219  2.18  0.  0.
220  2.19  0.  0.
221  2.20  0.  0.
222  2.21  0.  0.
223  2.22  0.  0.
224  2.23  0.  0.
225  2.24  0.  0.
226  2.25  0.  0.
227  2.26  0.  0.
228  2.27  0.  0.
229  2.28  0.  0.
230  2.29  0.  0.
231  2.30  0.  0.
232  2.31  0.  0.
233  2.32  0.  0.
234  2.33  0.  0.
235  2.34  0.  0.
236  2.35  0.  0.
237  2.36  0.  0.
238  2.37  0.  0.
239  2.38  0.  0.
240  2.39  0.  0.
241  2.40  0.  0.
242  2.41  0.  0.
243  2.42  0.  0.
244  2.43  0.  0.
245  2.44  0.  0.
246  2.45  0.  0.
247  2.46  0.  0.
248  2.47  0.  0.
249  2.48  0.  0.
250  2.49  0.  0.
251  2.50  0.  0.
252  2.51  0.  0.
253  2.52  0.  0.
254  2.53  0.  0.
255  2.54  0.  0.
256  2.55  0.  0.
257  2.56  0.  0.
258  2.57  0.  0.
259  2.58  0.  0.
260  2.59  0.  0.
261  2.60  0.  0.
262  2.61  0.  0.
263  2.62  0.  0.
264  2.63  0.  0.
265  2.64  0.  0.
266  2.65  0.  0.
267  2.66  0.  0.
268  2.67  0.  0.
269  2.68  0.  0.
270  2.69  0.  0.
271  2.70  0.  0.
272  2.71  0.  0.
273  2.72  0.  0.
274  2.73  0.  0.
275  2.74  0.  0.
276  2.75  0.  0.
277  2.76  0.  0.
278  2.77  0.  0.
279  2.78  0.  0.
280  2.79  0.  0.
281  2.80  0.  0.
282  2.81  0.  0.
283  2.82  0.  0.
284  2.83  0.  0.
285  2.84  0.  0.
286  2.85  0.  0.
287  2.86  0.  0.
288  2.87  0.  0.
289  2.88  0.  0.
290  2.89  0.  0.
291  2.90  0.  0.
292  2.91  0.  0.
293  2.92  0.  0.
294  2.93  0.  0.
295  2.94  0.  0.
296  2.95  0.  0.
297  2.96  0.  0.
298  2.97  0.  0.
299  2.98  0.  0.
300  2.99  0.  0.
301  3.00  0.  0.
302  3.01  0.  0.
303  3.02  0.  0.
304  3.03  0.  0.
305  3.04  0.  0.
306  3.05  0.  0.
307  3.06  0.  0.
308  3.07  0.  0.
309  3.08  0.  0.
310  3.09  0.  0.
311  3.10  0.  0.
312  3.11  0.  0.
313  3.12  0.  0.
314  3.13  0.  0.
315  3.14  0.  0.
316  3.15  0.  0.
317  3.16  0.  0.
318  3.17  0.  0.
319  3.18  0.  0.
320  3.19  0.  0.
321  3.20  0.  0.
322  3.21  0.  0.
323  3.22  0.  0.
324  3.23  0.  0.
325  3.24  0.  0.
326  3.25  0.  0.
327  3.26  0.  0.
328  3.27  0.  0.
329  3.28  0.  0.
330  3.29  0.  0.
331  3.30  0.  0.
332  3.31  0.  0.
333  3.32  0.  0.
334  3.33  0.  0.
335  3.34  0.  0.
336  3.35  0.  0.
337  3.36  0.  0.
338  3.37  0.  0.
339  3.38  0.  0.
340  3.39  0.  0.
341  3.40  0.  0.
342  3.41  0.  0.
343  3.42  0.  0.
344  3.43  0.  0.
345  3.44  0.  0.
346  3.45  0.  0.
347  3.46  0.  0.
348  3.47  0.  0.
349  3.48  0.  0.
350  3.49  0.  0.
351  3.50  0.  0.
352  3.51  0.  0.
353  3.52  0.  0.
354  3.53  0.  0.
355  3.54  0.  0.
356  3.55  0.  0.
357  3.56  0.  0.
358  3.57  0.  0.
359  3.58  0.  0.
360  3.59  0.  0.
361  3.60  0.  0.
362  3.61  0.  0.
363  3.62  0.  0.
364  3.63  0.  0.
365  3.64  0.  0.
366  3.65  0.  0.
367  3.66  0.  0.
368  3.67  0.  0.
369  3.68  0.  0.
370  3.69  0.  0.
371  3.70  0.  0.
372  3.71  0.  0.
373  3.72  0.  0.
374  3.73  0.  0.
375  3.74  0.  0.
376  3.75  0.  0.
377  3.76  0.  0.
378  3.77  0.  0.
379  3.78  0.  0.
380  3.79  0.  0.
381  3.80  0.  0.
382  3.81  0.  0.
383  3.82  0.  0.
384  3.83  0.  0.
385  3.84  0.  0.
386  3.85  0.  0.
387  3.86  0.  0.
388  3.87  0.  0.
389  3.88  0.  0.
390  3.89  0.  0.
391  3.90  0.  0.
392  3.91  0.  0.
393  3.92  0.  0.
394  3.93  0.  0.
395  3.94  0.  0.
396  3.95  0.  0.
397  3.96  0.  0.
398  3.97  0.  0.
399  3.98  0.  0.
400  3.99  0.  0.
401  4.00  0.  0.
402  4.01  0.  0.
403  4.02  0.  0.
404  4.03  0.  0.
405  4.04  0.  0.
406  4.05  0.  0.
407  4.06  0.  0.
408  4.07  0.  0.
409  4.08  0.  0.
410  4.09  0.  0.
411  4.10  0.  0.
412  4.11  0.  0.
413  4.12  0.  0.
414  4.13  0.  0.
415  4.14  0.  0.
416  4.15  0.  0.
417  4.16  0.  0.
418  4.17  0.  0.
419  4.18  0.  0.
420  4.19  0.  0.
421  4.20  0.  0.
422  4.21  0.  0.
423  4.22  0.  0.
424  4.23  0.  0.
425  4.24  0.  0.
426  4.25  0.  0.
427  4.26  0.  0.
428  4.27  0.  0.
429  4.28  0.  0.
430  4.29  0.  0.
431  4.30  0.  0.
432  4.31  0.  0.
433  4.32  0.  0.
434  4.33  0.  0.
435  4.34  0.  0.
436  4.35  0.  0.
437  4.36  0.  0.
438  4.37  0.  0.
439  4.38  0.  0.
440  4.39  0.  0.
441  4.40  0.  0.
442  4.41  0.  0.
443  4.42  0.  0.
444  4.43  0.  0.
445  4.44  0.  0.
446  4.45  0.  0.
447  4.46  0.  0.
448  4.47  0.  0.
449  4.48  0.  0.
450  4.49  0.  0.
451  4.50  0.  0.
452  4.51  0.  0.
453  4.52  0.  0.
454  4.53  0.  0.
455  4.54  0.  0.
456  4.55  0.  0.
457  4.56  0.  0.
458  4.57  0.  0.
459  4.58  0.  0.
460  4.59  0.  0.
461  4.60  0.  0.
462  4.61  0.  0.
463  4.62  0.  0.
464  4.63  0.  0.
465  4.64  0.  0.
466  4.65  0.  0.
467  4.66  0.  0.
468  4.67  0.  0.
469  4.68  0.  0.
470  4.69  0.  0.
471  4.70  0.  0.
472  4.71  0.  0.
473  4.72  0.  0.
474  4.73  0.  0.
475  4.74  0.  0.
476  4.75  0.  0.
477  4.76  0.  0.
478  4.77  0.  0.
479  4.78  0.  0.
480  4.79  0.  0.
481  4.80  0.  0.
482  4.81  0.  0.
483  4.82  0.  0.
484  4.83  0.  0.
485  4.84  0.  0.
486  4.85  0.  0.
487  4.86  0.  0.
488  4.87  0.  0.
489  4.88  0.  0.
490  4.89  0.  0.
491  4.90  0.  0.
492  4.91  0.  0.
493  4.92  0.  0.
494  4.93  0.  0.
495  4.94  0.  0.
496  4.95  0.  0.
497  4.96  0.  0.
498  4.97  0.  0.
499  4.98  0.  0.
500  4.99  0.  0.
501  5.00  0.  0.
502  5.01  0.  0.
503  5.02  0.  0.
504  5.03  0.  0.
505  5.04  0.  0.
506  5.05  0.  0.
507  5.06  0.  0.
508  5.07  0.  0.
509  5.08  0.  0.
510  5.09  0.  0.
511  5.10  0.  0.
512  5.11  0.  0.
513  5.12  0.  0.
514  5.13  0.  0.
515  5.14  0.  0.
516  5.15  0.  0.
517  5.16  0.  0.
518  5.17  0.  0.
519  5.18  0.  0.
520  5.19  0.  0.
521  5.20  0.  0.
522  5.21  0.  0.
523  5.22  0.  0.
524  5.23  0.  0.
525  5.24  0.  0.
526  5.25  0.  0.
527  5.26  0.  0.
528  5.27  0.  0.
529  5.28  0.  0.
530  5.29  0.  0.
531  5.30  0.  0.
532  5.31  0.  0.
533  5.32  0.  0.
534  5.33  0.  0.
535  5.34  0.  0.
536  5.35  0.  0.
537  5.36  0.  0.
538  5.37  0.  0.
539  5.38  0.  0.
540  5.39  0.  0.
541  5.40  0.  0.
542  5.41  0.  0.
543  5.42  0.  0.
544  5.43  0.  0.
545  5.44  0.  0.
546  5.45  0.  0.
547  5.46  0.  0.
548  5.47  0.  0.
549  5.48  0.  0.
550  5.49  0.  0.
551  5.50  0.  0.
552  5.51  0.  0.
553  5.52  0.  0.
554  5.53  0.  0.
555  5.54  0.  0.
556  5.55  0.  0.
557  5.56  0.  0.
558  5.57  0.  0.
559  5.58  0.  0.
560  5.59  0.  0.
561  5.60  0.  0.
562  5.61  0.  0.
563  5.62  0.  0.
564  5.63  0.  0.
565  5.64  0.  0.
566  5.65  0.  0.
567  5.66  0.  0.
568  5.67  0.  0.
569  5.68  0.  0.
570  5.69  0.  0.
571  5.70  0.  0.
572  5.71  0.  0.
573  5.72  0.  0.
574  5.73  0.  0.
575  5.74  0.  0.
576  5.75  0.  0.
577  5.76  0.  0.
578  5.77  0.  0.
579  5.78  0.  0.
580  5.79  0.  0.
581  5.80  0.  0.
582  5.81  0.  0.
583  5.82  0.  0.
584  5.83  0.  0.
585  5.84  0.  0.
586  5.85  0.  0.
587  5.86  0.  0.
588  5.87  0.  0.
589  5.88  0.  0.
590  5.89  0.  0.
591  5.90  0.  0.
592  5.91  0.  0.
593  5.92  0.  0.
594  5.93  0.  0.
595  5.94  0.  0.
596  5.95  0.  0.
597  5.96  0.  0.
598  5.97  0.  0.
599  5.98  0.  0.
600  5.99  0.  0.
1                         3.6632286425797E+00 -4.0285228647098E-01
1  0.0000000000000E+00 -2.3169159701908E-08 -3.0236626220176E-08
2  1.0000000000000E-02  2.1900964664202E-03 -2.8827705899982E-04
3  2.0000000000000E-02  8.7599189645192E-03 -1.1341425150255E-03
4  3.0000000000000E-02  1.9707656189845E-02 -2.4813181764207E-03
5  4.0000000000000E-02  3.5028935907982E-02 -4.2380503777843E-03
6  5.0000000000000E-02  5.4714847851140E-02 -6.2801058756402E-03
7  6.0000000000000E-02  7.8749280037024E-02 -8.4548301563057E-03
8  7.0000000000000E-02  1.0710566883447E-01 -1.0586137331148E-02
9  8.0000000000000E-02  1.3974328626941E-01 -1.2480270557787E-02
10  9.0000000000000E-02  1.7660320734035E-01 -1.3932146744289E-02
11  1.0000000000000E-01  2.1760411487369E-01 -1.4732079968452E-02
12  1.1000000000000E-01  2.6263810921113E-01 -1.4672665197536E-02
13  1.2000000000000E-01  3.1156669444902E-01 -1.3555597949264E-02
14  1.3000000000000E-01  3.6421711186914E-01 -1.1198206705399E-02
15  1.4000000000000E-01  4.2037918460422E-01 -7.4394831686866E-03
16  1.5000000000000E-01  4.7980282562953E-01 -2.1454106171118E-03
17  1.6000000000000E-01  5.4219634418727E-01  4.7865877820526E-03
18  1.7000000000000E-01  6.0722566421039E-01  1.3424231421543E-02
19  1.8000000000000E-01  6.7451454283497E-01  2.3798113791364E-02
20  1.9000000000000E-01  7.4364584841727E-01  3.5900665026790E-02
21  2.0000000000000E-01  8.1416392644457E-01  4.9686388094169E-02
22  2.1000000000000E-01  8.8557804926959E-01  6.5073370259599E-02
23  2.2000000000000E-01  9.5736691267562E-01  8.1946030084140E-02
24  2.3000000000000E-01  1.0289841098859E+00  1.0015901965909E-01
25  2.4000000000000E-01  1.0998644827512E+00  1.1954216341003E-01
26  2.5000000000000E-01  1.1694312214294E+00  1.3990627977792E-01
27  2.6000000000000E-01  1.2371035587971E+00  1.6104970155585E-01
28  2.7000000000000E-01  1.3023048848882E+00  1.8276528562100E-01
29  2.8000000000000E-01  1.3644710905229E+00  2.0484768409369E-01
30  2.9000000000000E-01  1.4230589385004E+00  2.2710063723353E-01
31  3.0000000000000E-01  1.4775542556697E+00  2.4934404409611E-01
32  3.1000000000000E-01  1.5274797400806E+00  2.7142057034652E-01
33  3.2000000000000E-01  1.5724021842976E+00  2.9320156365265E-01
34  3.3000000000000E-01  1.6119389286883E+00  3.1459206552118E-01
35  3.4000000000000E-01  1.6457633767888E+00  3.3553473382299E-01
36  3.5000000000000E-01  1.6736094281964E+00  3.5601252189433E-01
37  3.6000000000000E-01  1.6952747122474E+00  3.7604999711027E-01
38  3.7000000000000E-01  1.7106225372076E+00  3.9571322314398E-01
39  3.8000000000000E-01  1.7195825039776E+00  4.1510817454334E-01
40  3.9000000000000E-01  1.7221497694017E+00  4.3437769845698E-01
41  4.0000000000000E-01  1.7183829811414E+00  4.5369708493355E-01
42  4.1000000000000E-01  1.7084009426565E+00  4.7326835278001E-01
43  4.2000000000000E-01  1.6923781020557E+00  4.9331340108182E-01
44  4.3000000000000E-01  1.6705389913923E+00  5.1406621580442E-01
45  4.4000000000000E-01  1.6431517724011E+00  5.3576435514128E-01
46  4.5000000000000E-01  1.6105210698097E+00  5.5863996532089E-01
47  4.6000000000000E-01  1.5729802934283E+00  5.8291059946648E-01
48  4.7000000000000E-01  1.5308836645947E+00  6.0877012505696E-01
49  4.8000000000000E-01  1.4845981707434E+00  6.3638001002523E-01
50  4.9000000000000E-01  1.4344956735847E+00  6.6586127325991E-01
51  5.0000000000000E-01  1.3809453915031E+00  6.9728737221061E-01
52  5.1000000000000E-01  1.3243069654015E+00  7.3067827866234E-01
53  5.2000000000000E-01  1.2649242995880E+00  7.6599596402776E-01
54  5.3000000000000E-01  1.2031203458980E+00  8.0314147843995E-01
55  5.4000000000000E-01  1.1391929706841E+00  8.4195376448008E-01
56  5.5000000000000E-01  1.0734120113941E+00  8.8221029771565E-01
57  5.6000000000000E-01  1.0060175931091E+00  9.2362959370242E-01
58  5.7000000000000E-01  9.3721973667749E-01  9.6587556620215E-01
59  5.8000000000000E-01  8.6719925007158E-01  1.0085636656698E+00
60  5.9000000000000E-01  7.9610985448860E-01  1.0512686722010E+00
61  6.0000000000000E-01  7.2408145769845E-01  1.0935339647426E+00
62  6.1000000000000E-01  6.5122445038265E-01  1.1348820400445E+00
63  6.2000000000000E-01  5.7763486782706E-01  1.1748260120839E+00
64  6.3000000000000E-01  5.0340023035730E-01  1.2128817868763E+00
65  6.4000000000000E-01  4.2860585225652E-01  1.2485805799042E+00
66  6.5000000000000E-01  3.5334139134981E-01  1.2814814248085E+00
67  6.6000000000000E-01  2.7770740057829E-01  1.3111833132244E+00
68  6.7000000000000E-01  2.0182163913292E-01  1.3373366071657E+00
69  6.8000000000000E-01  1.2582490427935E-01  1.3596533773160E+00
70  6.9000000000000E-01  4.9886155881330E-02  1.3779163428459E+00
71  7.0000000000000E-01 -2.5793276399928E-02  1.3919861205022E+00
72  7.1000000000000E-01 -1.0097658861270E-01  1.4018065319687E+00
73  7.2000000000000E-01 -1.7538965543355E-01  1.4074077678837E+00
74  7.3000000000000E-01 -2.4872055929959E-01  1.4089072631418E+00
75  7.4000000000000E-01 -3.2062057440465E-01  1.4065081997450E+00
76  7.5000000000000E-01 -3.9070664092982E-01  1.4004956188170E+00
77  7.6000000000000E-01 -4.5856531968501E-01  1.3912301906864E+00
78  7.7000000000000E-01 -5.2375817153416E-01  1.3791397592708E+00
79  7.8000000000000E-01 -5.8582846088858E-01  1.3647088424562E+00
80  7.9000000000000E-01 -6.4430903951420E-01  1.3484663318558E+00
81  8.0000000000000E-01 -6.9873122719419E-01  1.3309716914409E+00
82  8.1000000000000E-01 -7.4863447063674E-01  1.3128000033558E+00
83  8.2000000000000E-01 -7.9357653250982E-01  1.2945262492607E+00
84  8.3000000000000E-01 -8.3314393957594E-01  1.2767092454839E+00
85  8.4000000000000E-01 -8.6696240336065E-01  1.2598756690960E+00
86  8.5000000000000E-01 -8.9470691919435E-01  1.2445046190063E+00
87  8.6000000000000E-01 -9.1611125016926E-01  1.2310131509237E+00
88  8.7000000000000E-01 -9.3097651167286E-01  1.2197432074495E+00
89  8.8000000000000E-01 -9.3917858957615E-01  1.2109503349616E+00
90  8.9000000000000E-01 -9.4067415051048E-01  1.2047945379262E+00
91  9.0000000000000E-01 -9.3550503537171E-01  1.2013335697823E+00
92  9.1000000000000E-01 -9.2380086643551E-01  1.2005188988536E+00
93  9.2000000000000E-01 -9.0577974324769E-01  1.2021945193754E+00
94  9.3000000000000E-01 -8.8174695159385E-01  1.2060987034627E+00
95  9.4000000000000E-01 -8.5209166203377E-01  1.2118687116481E+00
96  9.5000000000000E-01 -8.1728164828720E-01  1.2190483995872E+00
97  9.6000000000000E-01 -7.7785610970501E-01  1.2270985788368E+00
98  9.7000000000000E-01 -7.3441673462521E-01  1.2354099124760E+00
99  9.8000000000000E-01 -6.8761719113011E-01  1.2433180539010E+00
100  9.9000000000000E-01 -6.3815127713380E-01  1.2501206714759E+00
101  1.0000000000000E+00 -5.8674000155322E-01  1.2550959446983E+00
102  1.0100000000000E+00 -5.3411790132565E-01  1.2575220709009E+00
103  1.0200000000000E+00 -4.8101892424381E-01  1.2566972866221E+00
104  1.0300000000000E+00 -4.2816222419332E-01  1.2519598857615E+00
105  1.0400000000000E+00 -3.7623822280695E-01  1.2427077082757E+00
106  1.0500000000000E+00 -3.2589528948329E-01  1.2284165788545E+00
107  1.0600000000000E+00 -2.7772738011560E-01  1.2086571947466E+00
108  1.0700000000000E+00 -2.3226295387293E-01  1.1831099954110E+00
109  1.0800000000000E+00 -1.8995545758682E-01  1.1515775929863E+00
110  1.0900000000000E+00 -1.5117562921003E-01  1.1139944009435E+00
111  1.1000000000000E+00 -1.1620582665423E-01  1.0704331668477E+00
112  1.1100000000000E+00 -8.5236536999727E-02  1.0211081925390E+00
113  1.1200000000000E+00 -5.8365165078769E-02  9.6637510903082E-01
114  1.1300000000000E+00 -3.5597141249191E-02  9.0672716182898E-01
115  1.1400000000000E+00 -1.6849327229032E-02  8.4278805307240E-01
116  1.1500000000000E+00 -1.9556380624379E-03  7.7530147707595E-01
117  1.1600000000000E+00  9.3252610468295E-03  7.0511757358920E-01
118  1.1700000000000E+00  1.7300380215247E-02  6.3317660550429E-01
119  1.1800000000000E+00  2.2331201066105E-02  5.6049024297956E-01
120  1.1900000000000E+00  2.4821136990254E-02  4.8812090175514E-01
121  1.2000000000000E+00  2.5201988261214E-02  4.1715963790457E-01
122  1.2100000000000E+00  2.3919751803585E-02  3.4870314318635E-01
123  1.2200000000000E+00  2.1420147657268E-02  2.8383040601638E-01
124  1.2300000000000E+00  1.8134376796744E-02  2.2357966036525E-01
125  1.2400000000000E+00  1.4460807431488E-02  1.6892424540469E-01
126  1.2500000000000E+00  1.0716561738586E-02  1.2073406347470E-01
127  1.2600000000000E+00  7.2227620735623E-03  7.9799837211621E-02
128  1.2700000000000E+00  4.2537573347748E-03  4.6803432991561E-02
129  1.2800000000000E+00  2.0044764356360E-03  2.2295514291925E-02
130  1.2900000000000E+00  5.8125836471170E-04  6.6341637205691E-03
131  1.3000000000000E+00  2.6190201778798E-05  3.1272994280110E-04
132  1.3100000000000E+00  3.1696582328287E-07  3.7437922577236E-06
133  1.3200000000000E+00 -5.3643358551468E-07 -6.2271776300569E-06
134  1.33 -0.  0.
135  1.34  0.  0.
136  1.35  0.  0.
137  1.36  0.  0.
138  1.37  0.  0.
139  1.38  0.  0.
140  1.39  0.  0.
141  1.40  0.  0.
142  1.41  0.  0.
143  1.42  0.  0.
144  1.43  0.  0.
145  1.44  0.  0.
146  1.45  0.  0.
147  1.46  0.  0.
148  1.47  0.  0.
149  1.48  0.  0.
150  1.49  0.  0.
151  1.50  0.  0.
152  1.51  0.  0.
153  1.52  0.  0.
154  1.53  0.  0.
155  1.54  0.  0.
156  1.55  0.  0.
157  1.56  0.  0.
158  1.57  0.  0.
159  1.58  0.  0.
160  1.59  0.  0.
161  1.60  0.  0.
162  1.61  0.  0.
163  1.62  0.  0.
164  1.63  0.  0.
165  1.64  0.  0.
166  1.65  0.  0.
167  1.66  0.  0.
168  1.67  0.  0.
169  1.68  0.  0.
170  1.69  0.  0.
171  1.70  0.  0.
172  1.71  0.  0.
173  1.72  0.  0.
174  1.73  0.  0.
175  1.74  0.  0.
176  1.75  0.  0.
177  1.76  0.  0.
178  1.77  0.  0.
179  1.78  0.  0.
180  1.79  0.  0.
181  1.80  0.  0.
182  1.81  0.  0.
183  1.82  0.  0.
184  1.83  0.  0.
185  1.84  0.  0.
186  1.85  0.  0.
187  1.86  0.  0.
188  1.87  0.  0.
189  1.88  0.  0.
190  1.89  0.  0.
191  1.90  0.  0.
192  1.91  0.  0.
193  1.92  0.  0.
194  1.93  0.  0.
195  1.94  0.  0.
196  1.95  0.  0.
197  1.96  0.  0.
198  1.97  0.  0.
199  1.98  0.  0.
200  1.99  0.  0.
201  2.00  0.  0.
202  2.01  0.  0.
203  2.02  0.  0.
204  2.03  0.  0.
205  2.04  0.  0.
206  2.05  0.  0.
207  2.06  0.  0.
208  2.07  0.  0.
209  2.08  0.  0.
210  2.09  0.  0.
211  2.10  0.  0.
212  2.11  0.  0.
213  2.12  0.  0.
214  2.13  0.  0.
215  2.14  0.  0.
216  2.15  0.  0.
217  2.16  0.  0.
218  2.17  0.  0.
219  2.18  0.  0.
220  2.19  0.  0.
221  2.20  0.  0.
222  2.21  0.  0.
223  2.22  0.  0.
224  2.23  0.  0.
225  2.24  0.  0.
226  2.25  0.  0.
227  2.26  0.  0.
228  2.27  0.  0.
229  2.28  0.  0.
230  2.29  0.  0.
231  2.30  0.  0.
232  2.31  0.  0.
233  2.32  0.  0.
234  2.33  0.  0.
235  2.34  0.  0.
236  2.35  0.  0.
237  2.36  0.  0.
238  2.37  0.  0.
239  2.38  0.  0.
240  2.39  0.  0.
241  2.40  0.  0.
242  2.41  0.  0.
243  2.42  0.  0.
244  2.43  0.  0.
245  2.44  0.  0.
246  2.45  0.  0.
247  2.46  0.  0.
248  2.47  0.  0.
249  2.48  0.  0.
250  2.49  0.  0.
251  2.50  0.  0.
252  2.51  0.  0.
253  2.52  0.  0.
254  2.53  0.  0.
255  2.54  0.  0.
256  2.55  0.  0.
257  2.56  0.  0.
258  2.57  0.  0.
259  2.58  0.  0.
260  2.59  0.  0.
261  2.60  0.  0.
262  2.61  0.  0.
263  2.62  0.  0.
264  2.63  0.  0.
265  2.64  0.  0.
266  2.65  0.  0.
267  2.66  0.  0.
268  2.67  0.  0.
269  2.68  0.  0.
270  2.69  0.  0.
271  2.70  0.  0.
272  2.71  0.  0.
273  2.72  0.  0.
274  2.73  0.  0.
275  2.74  0.  0.
276  2.75  0.  0.
277  2.76  0.  0.
278  2.77  0.  0.
279  2.78  0.  0.
280  2.79  0.  0.
281  2.80  0.  0.
282  2.81  0.  0.
283  2.82  0.  0.
284  2.83  0.  0.
285  2.84  0.  0.
286  2.85  0.  0.
287  2.86  0.  0.
288  2.87  0.  0.
289  2.88  0.  0.
290  2.89  0.  0.
291  2.90  0.  0.
292  2.91  0.  0.
293  2.92  0.  0.
294  2.93  0.  0.
295  2.94  0.  0.
296  2.95  0.  0.
297  2.96  0.  0.
298  2.97  0.  0.
299  2.98  0.  0.
300  2.99  0.  0.
301  3.00  0.  0.
302  3.01  0.  0.
303  3.02  0.  0.
304  3.03  0.  0.
305  3.04  0.  0.
306  3.05  0.  0.
307  3.06  0.  0.
308  3.07  0.  0.
309  3.08  0.  0.
310  3.09  0.  0.
311  3.10  0.  0.
312  3.11  0.  0.
313  3.12  0.  0.
314  3.13  0.  0.
315  3.14  0.  0.
316  3.15  0.  0.
317  3.16  0.  0.
318  3.17  0.  0.
319  3.18  0.  0.
320  3.19  0.  0.
321  3.20  0.  0.
322  3.21  0.  0.
323  3.22  0.  0.
324  3.23  0.  0.
325  3.24  0.  0.
326  3.25  0.  0.
327  3.26  0.  0.
328  3.27  0.  0.
329  3.28  0.  0.