Sb    ONCVPSP-4.0.1  r_core=   2.51418   2.15203   2.60605   2.20414
51.0000      5.0000      220201    zatom,zion,pspd
8      11   3     4   600     0    pspcod,pspxc,lmax,lloc,mmax,r2well
5.99000000  7.00000000  0.00000000    rchrg fchrg qchrg
2     2     2     1     0    nproj
1     1           extension_switch
0                         4.3508458067762E+00  4.5509294412761E-01
1  0.0000000000000E+00 -6.0160737502812E-11  1.7723618406240E-10
2  1.0000000000000E-02  2.2632354899960E-02 -9.9469141217220E-03
3  2.0000000000000E-02  4.5243180544832E-02 -1.9847705356617E-02
4  3.0000000000000E-02  6.7811110525408E-02 -2.9656707356692E-02
5  4.0000000000000E-02  9.0315102496995E-02 -3.9329162170980E-02
6  5.0000000000000E-02  1.1273459615895E-01 -4.8821662787798E-02
7  6.0000000000000E-02  1.3504966641386E-01 -5.8092581816079E-02
8  7.0000000000000E-02  1.5724117017082E-01 -6.7102481895120E-02
9  8.0000000000000E-02  1.7929088531714E-01 -7.5814503599354E-02
10  9.0000000000000E-02  2.0118164045736E-01 -8.4194726823052E-02
11  1.0000000000000E-01  2.2289743410547E-01 -9.2212501887513E-02
12  1.1000000000000E-01  2.4442354211662E-01 -9.9840746907409E-02
13  1.2000000000000E-01  2.6574661225583E-01 -1.0705620828135E-01
14  1.3000000000000E-01  2.8685474492379E-01 -1.1383968153078E-01
15  1.4000000000000E-01  3.0773755919102E-01 -1.2017619009808E-01
16  1.5000000000000E-01  3.2838624343203E-01 -1.2605512012543E-01
17  1.6000000000000E-01  3.4879358999773E-01 -1.3147030966656E-01
18  1.7000000000000E-01  3.6895401351686E-01 -1.3642009123051E-01
19  1.8000000000000E-01  3.8886355257406E-01 -1.4090728701477E-01
20  1.9000000000000E-01  4.0851985467176E-01 -1.4493915665163E-01
21  2.0000000000000E-01  4.2792214454371E-01 -1.4852729776042E-01
22  2.1000000000000E-01  4.4707117604883E-01 -1.5168750006638E-01
23  2.2000000000000E-01  4.6596916803307E-01 -1.5443955430912E-01
24  2.3000000000000E-01  4.8461972470268E-01 -1.5680701761523E-01
25  2.4000000000000E-01  5.0302774120392E-01 -1.5881693744753E-01
26  2.5000000000000E-01  5.2119929524908E-01 -1.6049953666206E-01
27  2.6000000000000E-01  5.3914152576733E-01 -1.6188786260015E-01
28  2.7000000000000E-01  5.5686249968744E-01 -1.6301740351280E-01
29  2.8000000000000E-01  5.7437106807977E-01 -1.6392567595401E-01
30  2.9000000000000E-01  5.9167671299255E-01 -1.6465178708624E-01
31  3.0000000000000E-01  6.0878938641469E-01 -1.6523597611074E-01
32  3.1000000000000E-01  6.2571934288031E-01 -1.6571913926671E-01
33  3.2000000000000E-01  6.4247696730037E-01 -1.6614234303203E-01
34  3.3000000000000E-01  6.5907259966155E-01 -1.6654633030477E-01
35  3.4000000000000E-01  6.7551635827342E-01 -1.6697102444537E-01
36  3.5000000000000E-01  6.9181796326923E-01 -1.6745503611443E-01
37  3.6000000000000E-01  7.0798656207502E-01 -1.6803517784910E-01
38  3.7000000000000E-01  7.2403055855500E-01 -1.6874599128182E-01
39  3.8000000000000E-01  7.3995744751830E-01 -1.6961929181951E-01
40  3.9000000000000E-01  7.5577365623399E-01 -1.7068373546840E-01
41  4.0000000000000E-01  7.7148439454738E-01 -1.7196441231213E-01
42  4.1000000000000E-01  7.8709351512172E-01 -1.7348247092879E-01
43  4.2000000000000E-01  8.0260338524626E-01 -1.7525477776863E-01
44  4.3000000000000E-01  8.1801477155434E-01 -1.7729361521039E-01
45  4.4000000000000E-01  8.3332673888544E-01 -1.7960642167304E-01
46  4.5000000000000E-01  8.4853656440308E-01 -1.8219557678447E-01
47  4.6000000000000E-01  8.6363966794750E-01 -1.8505823420227E-01
48  4.7000000000000E-01  8.7862955945950E-01 -1.8818620424822E-01
49  4.8000000000000E-01  8.9349780416067E-01 -1.9156588806102E-01
50  4.9000000000000E-01  9.0823400601688E-01 -1.9517826449534E-01
51  5.0000000000000E-01  9.2282580984792E-01 -1.9899893050399E-01
52  5.1000000000000E-01  9.3725892227766E-01 -2.0299819523815E-01
53  5.2000000000000E-01  9.5151715154810E-01 -2.0714122759277E-01
54  5.3000000000000E-01  9.6558246604832E-01 -2.1138825641529E-01
55  5.4000000000000E-01  9.7943507123698E-01 -2.1569482209056E-01
56  5.5000000000000E-01  9.9305350446741E-01 -2.2001207771751E-01
57  5.6000000000000E-01  1.0064147470569E+00 -2.2428713760881E-01
58  5.7000000000000E-01  1.0194943527804E+00 -2.2846347037836E-01
59  5.8000000000000E-01  1.0322665918144E+00 -2.3248133343614E-01
60  5.9000000000000E-01  1.0447046090064E+00 -2.3627824529195E-01
61  6.0000000000000E-01  1.0567805952124E+00 -2.3978949168083E-01
62  6.1000000000000E-01  1.0684659703112E+00 -2.4294866116914E-01
63  6.2000000000000E-01  1.0797315763943E+00 -2.4568820558346E-01
64  6.3000000000000E-01  1.0905478795230E+00 -2.4794002032892E-01
65  6.4000000000000E-01  1.1008851783577E+00 -2.4963603943138E-01
66  6.5000000000000E-01  1.1107138178906E+00 -2.5070883995171E-01
67  6.6000000000000E-01  1.1200044064520E+00 -2.5109225028309E-01
68  6.7000000000000E-01  1.1287280341211E+00 -2.5072195675352E-01
69  6.8000000000000E-01  1.1368564906437E+00 -2.4953610291915E-01
70  6.9000000000000E-01  1.1443624809524E+00 -2.4747587594838E-01
71  7.0000000000000E-01  1.1512198363918E+00 -2.4448607456324E-01
72  7.1000000000000E-01  1.1574037197769E+00 -2.4051565312278E-01
73  7.2000000000000E-01  1.1628908224568E+00 -2.3551823660244E-01
74  7.3000000000000E-01  1.1676595516120E+00 -2.2945260144241E-01
75  7.4000000000000E-01  1.1716902060921E+00 -2.2228311750545E-01
76  7.5000000000000E-01  1.1749651391898E+00 -2.1398014669771E-01
77  7.6000000000000E-01  1.1774689068545E+00 -2.0452039416374E-01
78  7.7000000000000E-01  1.1791883999681E+00 -1.9388720836396E-01
79  7.8000000000000E-01  1.1801129594391E+00 -1.8207082677850E-01
80  7.9000000000000E-01  1.1802344730172E+00 -1.6906856444964E-01
81  8.0000000000000E-01  1.1795474528848E+00 -1.5488494307411E-01
82  8.1000000000000E-01  1.1780490932500E+00 -1.3953175887938E-01
83  8.2000000000000E-01  1.1757393073354E+00 -1.2302808806336E-01
84  8.3000000000000E-01  1.1726207433407E+00 -1.0540022913698E-01
85  8.4000000000000E-01  1.1686987791382E+00 -8.6681582080154E-02
86  8.5000000000000E-01  1.1639814956509E+00 -6.6912464799512E-02
87  8.6000000000000E-01  1.1584796290511E+00 -4.6139867953097E-02
88  8.7000000000000E-01  1.1522065021057E+00 -2.4417149781075E-02
89  8.8000000000000E-01  1.1451779351853E+00 -1.8036731441654E-03
90  8.9000000000000E-01  1.1374121376335E+00  2.1635612480584E-02
91  9.0000000000000E-01  1.1289295803752E+00  4.5830640769044E-02
92  9.1000000000000E-01  1.1197528508133E+00  7.0706746304454E-02
93  9.2000000000000E-01  1.1099064912258E+00  9.6185226064825E-02
94  9.3000000000000E-01  1.0994168220308E+00  1.2218393995301E-01
95  9.4000000000000E-01  1.0883117514271E+00  1.4861794528038E-01
96  9.5000000000000E-01  1.0766205730476E+00  1.7540015975858E-01
97  9.6000000000000E-01  1.0643737533811E+00  2.0244204724425E-01
98  9.7000000000000E-01  1.0516027108133E+00  2.2965432022113E-01
99  9.8000000000000E-01  1.0383395882266E+00  2.5694765279633E-01
100  9.9000000000000E-01  1.0246170211632E+00  2.8423339783416E-01
101  1.0000000000000E+00  1.0104679036071E+00  3.1142430175466E-01
102  1.0100000000000E+00  9.9592515346930E-01  3.3843521048502E-01
103  1.0200000000000E+00  9.8102147987756E-01  3.6518376007236E-01
104  1.0300000000000E+00  9.6578915436235E-01  3.9159104554581E-01
105  1.0400000000000E+00  9.5025978800761E-01  4.1758226175350E-01
106  1.0500000000000E+00  9.3446411659093E-01  4.4308731009724E-01
107  1.0600000000000E+00  9.1843179567540E-01  4.6804136533979E-01
108  1.0700000000000E+00  9.0219120753534E-01  4.9238539696936E-01
109  1.0800000000000E+00  8.8576928170027E-01  5.1606663996598E-01
110  1.0900000000000E+00  8.6919133078706E-01  5.3903901022678E-01
111  1.1000000000000E+00  8.5248090316013E-01  5.6126346036409E-01
112  1.1100000000000E+00  8.3565965381447E-01  5.8270827209263E-01
113  1.1200000000000E+00  8.1874723471803E-01  6.0334928196103E-01
114  1.1300000000000E+00  8.0176120567917E-01  6.2317003775819E-01
115  1.1400000000000E+00  7.8471696662377E-01  6.4216188352875E-01
116  1.1500000000000E+00  7.6762771197596E-01  6.6032397176018E-01
117  1.1600000000000E+00  7.5050440763839E-01  6.7766320195199E-01
118  1.1700000000000E+00  7.3335579086423E-01  6.9419408543793E-01
119  1.1800000000000E+00  7.1618839310509E-01  7.0993853700043E-01
120  1.1900000000000E+00  6.9900658570917E-01  7.2492559448690E-01
121  1.2000000000000E+00  6.8181264813354E-01  7.3919106830201E-01
122  1.2100000000000E+00  6.6460685812559E-01  7.5277712330727E-01
123  1.2200000000000E+00  6.4738760312368E-01  7.6573179629512E-01
124  1.2300000000000E+00  6.3015151192651E-01  7.7810845282464E-01
125  1.2400000000000E+00  6.1289360548821E-01  7.8996518779268E-01
126  1.2500000000000E+00  5.9560746551224E-01  8.0136417466956E-01
127  1.2600000000000E+00  5.7828541934332E-01  8.1237096884693E-01
128  1.2700000000000E+00  5.6091873949600E-01  8.2305377101635E-01
129  1.2800000000000E+00  5.4349785601082E-01  8.3348265692322E-01
130  1.2900000000000E+00  5.2601257969681E-01  8.4372878021285E-01
131  1.3000000000000E+00  5.0845233420330E-01  8.5386355540124E-01
132  1.3100000000000E+00  4.9080639476601E-01  8.6395782825990E-01
133  1.3200000000000E+00  4.7306413139246E-01  8.7408104109818E-01
134  1.3300000000000E+00  4.5521525419190E-01  8.8430040055581E-01
135  1.3400000000000E+00  4.3725005851489E-01  8.9468005558140E-01
136  1.3500000000000E+00  4.1915966754804E-01  9.0528029326832E-01
137  1.3600000000000E+00  4.0093627001102E-01  9.1615676014598E-01
138  1.3700000000000E+00  3.8257335062573E-01  9.2735971638390E-01
139  1.3800000000000E+00  3.6406591107065E-01  9.3893333015804E-01
140  1.3900000000000E+00  3.4541067919800E-01  9.5091501915303E-01
141  1.4000000000000E+00  3.2660630437615E-01  9.6333484583536E-01
142  1.4100000000000E+00  3.0765353692388E-01  9.7621497273095E-01
143  1.4200000000000E+00  2.8855538972662E-01  9.8956918348068E-01
144  1.4300000000000E+00  2.6931728026610E-01  1.0034024749309E+00
145  1.4400000000000E+00  2.4994715145336E-01  1.0177107249487E+00
146  1.4500000000000E+00  2.3045556982885E-01  1.0324804400362E+00
147  1.4600000000000E+00  2.1085579988101E-01  1.0476885861646E+00
148  1.4700000000000E+00  1.9116385343655E-01  1.0633025055498E+00
149  1.4800000000000E+00  1.7139851328541E-01  1.0792799213749E+00
150  1.4900000000000E+00  1.5158133042621E-01  1.0955690317085E+00
151  1.5000000000000E+00  1.3173659454463E-01  1.1121086931059E+00
152  1.5100000000000E+00  1.1189127757117E-01  1.1288286935959E+00
153  1.5200000000000E+00  9.2074950401242E-02  1.1456501139763E+00
154  1.5300000000000E+00  7.2319673098507E-02  1.1624857755541E+00
155  1.5400000000000E+00  5.2659859139481E-02  1.1792407716933E+00
156  1.5500000000000E+00  3.3132114491852E-02  1.1958130797721E+00
157  1.5600000000000E+00  1.3775052547650E-02  1.2120942494173E+00
158  1.5700000000000E+00 -5.3709138448397E-03  1.2279701621688E+00
159  1.5800000000000E+00 -2.4263801793528E-02  1.2433218570586E+00
160  1.5900000000000E+00 -4.2860307560278E-02  1.2580264159507E+00
161  1.6000000000000E+00 -6.1116073695342E-02  1.2719579019052E+00
162  1.6100000000000E+00 -7.8985972084877E-02  1.2849883432953E+00
163  1.6200000000000E+00 -9.6424400729113E-02  1.2969887559279E+00
164  1.6300000000000E+00 -1.1338559192753E-01  1.3078301950050E+00
165  1.6400000000000E+00 -1.2982392942510E-01  1.3173848284161E+00
166  1.6500000000000E+00 -1.4569427197160E-01  1.3255270225692E+00
167  1.6600000000000E+00 -1.6095228066506E-01  1.3321344317659E+00
168  1.6700000000000E+00 -1.7555474739133E-01  1.3370890819916E+00
169  1.6800000000000E+00 -1.8945992163568E-01  1.3402784399393E+00
170  1.6900000000000E+00 -2.0262783292891E-01  1.3415964581060E+00
171  1.7000000000000E+00 -2.1502060620090E-01  1.3409445869051E+00
172  1.7100000000000E+00 -2.2660276734770E-01  1.3382327449142E+00
173  1.7200000000000E+00 -2.3734153637560E-01  1.3333802386348E+00
174  1.7300000000000E+00 -2.4720710556497E-01  1.3263166234721E+00
175  1.7400000000000E+00 -2.5617290019893E-01  1.3169824980454E+00
176  1.7500000000000E+00 -2.6421581952562E-01  1.3053302244158E+00
177  1.7600000000000E+00 -2.7131645576724E-01  1.2913245673582E+00
178  1.7700000000000E+00 -2.7745928915281E-01  1.2749432464054E+00
179  1.7800000000000E+00 -2.8263285713377E-01  1.2561773950567E+00
180  1.7900000000000E+00 -2.8682989614060E-01  1.2350319222538E+00
181  1.8000000000000E+00 -2.9004745445238E-01  1.2115257719879E+00
182  1.8100000000000E+00 -2.9228697497882E-01  1.1856920777029E+00
183  1.8200000000000E+00 -2.9355434699315E-01  1.1575782089924E+00
184  1.8300000000000E+00 -2.9385992610263E-01  1.1272457089527E+00
185  1.8400000000000E+00 -2.9321852200014E-01  1.0947701214372E+00
186  1.8500000000000E+00 -2.9164935379877E-01  1.0602407083428E+00
187  1.8600000000000E+00 -2.8917597301931E-01  1.0237600579727E+00
188  1.8700000000000E+00 -2.8582615456292E-01  9.8544358640861E-01
189  1.8800000000000E+00 -2.8163175626544E-01  9.4541893471478E-01
190  1.8900000000000E+00 -2.7662854789010E-01  9.0382526566660E-01
191  1.9000000000000E+00 -2.7085601066883E-01  8.6081246454279E-01
192  1.9100000000000E+00 -2.6435710874855E-01  8.1654024933137E-01
193  1.9200000000000E+00 -2.5717803413394E-01  7.7117719647354E-01
194  1.9300000000000E+00 -2.4936792694290E-01  7.2489968900124E-01
195  1.9400000000000E+00 -2.4097857299704E-01  6.7789079459004E-01
196  1.9500000000000E+00 -2.3206408096488E-01  6.3033908167399E-01
197  1.9600000000000E+00 -2.2268054145073E-01  5.8243738232253E-01
198  1.9700000000000E+00 -2.1288567057643E-01  5.3438151105829E-01
199  1.9800000000000E+00 -2.0273844073918E-01  4.8636894920943E-01
200  1.9900000000000E+00 -1.9229870134167E-01  4.3859750472348E-01
201  2.0000000000000E+00 -1.8162679238117E-01  3.9126395762414E-01
202  2.0100000000000E+00 -1.7078315384941E-01  3.4456270146069E-01
203  2.0200000000000E+00 -1.5982793393883E-01  2.9868439119257E-01
204  2.0300000000000E+00 -1.4882059906667E-01  2.5381460794851E-01
205  2.0400000000000E+00 -1.3781954872062E-01  2.1013255101602E-01
206  2.0500000000000E+00 -1.2688173809690E-01  1.6780976724966E-01
207  2.0600000000000E+00 -1.1606231144140E-01  1.2700892782071E-01
208  2.0700000000000E+00 -1.0541424892700E-01  8.7882661914930E-02
209  2.0800000000000E+00 -9.4988029790661E-02  5.0572456552813E-02
210  2.0900000000000E+00 -8.4831314324110E-02  1.5207631211084E-02
211  2.1000000000000E+00 -7.4988647164190E-02 -1.8095604630762E-02
212  2.1100000000000E+00 -6.5501184152074E-02 -4.9235003550998E-02
213  2.1200000000000E+00 -5.6406444778119E-02 -7.8123035462210E-02
214  2.1300000000000E+00 -4.7738092226639E-02 -1.0468753920019E-01
215  2.1400000000000E+00 -3.9525743945430E-02 -1.2887225802178E-01
216  2.1500000000000E+00 -3.1794808050867E-02 -1.5063728967796E-01
217  2.1600000000000E+00 -2.4566358804377E-02 -1.6995937786747E-01
218  2.1700000000000E+00 -1.7857147143286E-02 -1.8683148035866E-01
219  2.1800000000000E+00 -1.1679662627910E-02 -2.0126214671296E-01
220  2.1900000000000E+00 -6.0421711995220E-03 -2.1327513974244E-01
221  2.2000000000000E+00 -9.4872501183678E-04 -2.2290930850781E-01
222  2.2100000000000E+00  3.6007780370559E-03 -2.3021824082534E-01
223  2.2200000000000E+00  7.6105063950905E-03 -2.3526982534743E-01
224  2.2300000000000E+00  1.1088575011519E-02 -2.3814569958879E-01
225  2.2400000000000E+00  1.4046895059083E-02 -2.3894059101859E-01
226  2.2500000000000E+00  1.6500994452946E-02 -2.3776155587975E-01
227  2.2600000000000E+00  1.8469810673586E-02 -2.3472712154281E-01
228  2.2700000000000E+00  1.9975457700033E-02 -2.2996633924115E-01
229  2.2800000000000E+00  2.1042969019494E-02 -2.2361775454996E-01
230  2.2900000000000E+00  2.1700018890980E-02 -2.1582830368467E-01
231  2.3000000000000E+00  2.1976624217120E-02 -2.0675214431362E-01
232  2.3100000000000E+00  2.1904829575020E-02 -1.9654943023734E-01
233  2.3200000000000E+00  2.1518378066229E-02 -1.8538503964280E-01
234  2.3300000000000E+00  2.0852370756953E-02 -1.7342726700030E-01
235  2.3400000000000E+00  1.9942917606234E-02 -1.6084648910483E-01
236  2.3500000000000E+00  1.8826785212277E-02 -1.4781382304109E-01
237  2.3600000000000E+00  1.7541019483806E-02 -1.3449971248314E-01
238  2.3700000000000E+00  1.6122650108302E-02 -1.2107276313060E-01
239  2.3800000000000E+00  1.4608258024069E-02 -1.0769817706997E-01
240  2.3900000000000E+00  1.3033475822503E-02 -9.4535994261859E-02
241  2.4000000000000E+00  1.1431256244288E-02 -8.1735647261984E-02
242  2.4100000000000E+00  9.8337253924709E-03 -6.9441262123582E-02
243  2.4200000000000E+00  8.2734105816521E-03 -5.7795109368857E-02
244  2.4300000000000E+00  6.7805808686513E-03 -4.6929451125661E-02
245  2.4400000000000E+00  5.3831271432597E-03 -3.6965983019089E-02
246  2.4500000000000E+00  4.1063647254026E-03 -2.8015061728014E-02
247  2.4600000000000E+00  2.9727807346795E-03 -2.0174788209466E-02
248  2.4700000000000E+00  2.0018836009657E-03 -1.3530629798216E-02
249  2.4800000000000E+00  1.2102010443473E-03 -8.1559399912620E-03
250  2.4900000000000E+00  6.0654420235920E-04 -4.0805058181729E-03
251  2.5000000000000E+00  2.1156152949114E-04 -1.4224960796896E-03
252  2.5100000000000E+00  2.8945665285388E-05 -1.9499931533854E-04
253  2.5200000000000E+00 -1.1753353967395E-05  7.8718628539670E-05
254  2.5300000000000E+00  7.0925307244197E-07 -4.7538935447696E-06
255  2.54  0. -0.
256  2.55 -0.  0.
257  2.56  0. -0.
258  2.57  0. -0.
259  2.58  0.  0.
260  2.59  0.  0.
261  2.60  0.  0.
262  2.61  0.  0.
263  2.62  0.  0.
264  2.63  0.  0.
265  2.64  0.  0.
266  2.65  0.  0.
267  2.66  0.  0.
268  2.67  0.  0.
269  2.68  0.  0.
270  2.69  0.  0.
271  2.70  0.  0.
272  2.71  0.  0.
273  2.72  0.  0.
274  2.73  0.  0.
275  2.74  0.  0.
276  2.75  0.  0.
277  2.76  0.  0.
278  2.77  0.  0.
279  2.78  0.  0.
280  2.79  0.  0.
281  2.80  0.  0.
282  2.81  0.  0.
283  2.82  0.  0.
284  2.83  0.  0.
285  2.84  0.  0.
286  2.85  0.  0.
287  2.86  0.  0.
288  2.87  0.  0.
289  2.88  0.  0.
290  2.89  0.  0.
291  2.90  0.  0.
292  2.91  0.  0.
293  2.92  0.  0.
294  2.93  0.  0.
295  2.94  0.  0.
296  2.95  0.  0.
297  2.96  0.  0.
298  2.97  0.  0.
299  2.98  0.  0.
300  2.99  0.  0.
301  3.00  0.  0.
302  3.01  0.  0.
303  3.02  0.  0.
304  3.03  0.  0.
305  3.04  0.  0.
306  3.05  0.  0.
307  3.06  0.  0.
308  3.07  0.  0.
309  3.08  0.  0.
310  3.09  0.  0.
311  3.10  0.  0.
312  3.11  0.  0.
313  3.12  0.  0.
314  3.13  0.  0.
315  3.14  0.  0.
316  3.15  0.  0.
317  3.16  0.  0.
318  3.17  0.  0.
319  3.18  0.  0.
320  3.19  0.  0.
321  3.20  0.  0.
322  3.21  0.  0.
323  3.22  0.  0.
324  3.23  0.  0.
325  3.24  0.  0.
326  3.25  0.  0.
327  3.26  0.  0.
328  3.27  0.  0.
329  3.28  0.  0.
330  3.29  0.  0.
331  3.30  0.  0.
332  3.31  0.  0.
333  3.32  0.  0.
334  3.33  0.  0.
335  3.34  0.  0.
336  3.35  0.  0.
337  3.36  0.  0.
338  3.37  0.  0.
339  3.38  0.  0.
340  3.39  0.  0.
341  3.40  0.  0.
342  3.41  0.  0.
343  3.42  0.  0.
344  3.43  0.  0.
345  3.44  0.  0.
346  3.45  0.  0.
347  3.46  0.  0.
348  3.47  0.  0.
349  3.48  0.  0.
350  3.49  0.  0.
351  3.50  0.  0.
352  3.51  0.  0.
353  3.52  0.  0.
354  3.53  0.  0.
355  3.54  0.  0.
356  3.55  0.  0.
357  3.56  0.  0.
358  3.57  0.  0.
359  3.58  0.  0.
360  3.59  0.  0.
361  3.60  0.  0.
362  3.61  0.  0.
363  3.62  0.  0.
364  3.63  0.  0.
365  3.64  0.  0.
366  3.65  0.  0.
367  3.66  0.  0.
368  3.67  0.  0.
369  3.68  0.  0.
370  3.69  0.  0.
371  3.70  0.  0.
372  3.71  0.  0.
373  3.72  0.  0.
374  3.73  0.  0.
375  3.74  0.  0.
376  3.75  0.  0.
377  3.76  0.  0.
378  3.77  0.  0.
379  3.78  0.  0.
380  3.79  0.  0.
381  3.80  0.  0.
382  3.81  0.  0.
383  3.82  0.  0.
384  3.83  0.  0.
385  3.84  0.  0.
386  3.85  0.  0.
387  3.86  0.  0.
388  3.87  0.  0.
389  3.88  0.  0.
390  3.89  0.  0.
391  3.90  0.  0.
392  3.91  0.  0.
393  3.92  0.  0.
394  3.93  0.  0.
395  3.94  0.  0.
396  3.95  0.  0.
397  3.96  0.  0.
398  3.97  0.  0.
399  3.98  0.  0.
400  3.99  0.  0.
401  4.00  0.  0.
402  4.01  0.  0.
403  4.02  0.  0.
404  4.03  0.  0.
405  4.04  0.  0.
406  4.05  0.  0.
407  4.06  0.  0.
408  4.07  0.  0.
409  4.08  0.  0.
410  4.09  0.  0.
411  4.10  0.  0.
412  4.11  0.  0.
413  4.12  0.  0.
414  4.13  0.  0.
415  4.14  0.  0.
416  4.15  0.  0.
417  4.16  0.  0.
418  4.17  0.  0.
419  4.18  0.  0.
420  4.19  0.  0.
421  4.20  0.  0.
422  4.21  0.  0.
423  4.22  0.  0.
424  4.23  0.  0.
425  4.24  0.  0.
426  4.25  0.  0.
427  4.26  0.  0.
428  4.27  0.  0.
429  4.28  0.  0.
430  4.29  0.  0.
431  4.30  0.  0.
432  4.31  0.  0.
433  4.32  0.  0.
434  4.33  0.  0.
435  4.34  0.  0.
436  4.35  0.  0.
437  4.36  0.  0.
438  4.37  0.  0.
439  4.38  0.  0.
440  4.39  0.  0.
441  4.40  0.  0.
442  4.41  0.  0.
443  4.42  0.  0.
444  4.43  0.  0.
445  4.44  0.  0.
446  4.45  0.  0.
447  4.46  0.  0.
448  4.47  0.  0.
449  4.48  0.  0.
450  4.49  0.  0.
451  4.50  0.  0.
452  4.51  0.  0.
453  4.52  0.  0.
454  4.53  0.  0.
455  4.54  0.  0.
456  4.55  0.  0.
457  4.56  0.  0.
458  4.57  0.  0.
459  4.58  0.  0.
460  4.59  0.  0.
461  4.60  0.  0.
462  4.61  0.  0.
463  4.62  0.  0.
464  4.63  0.  0.
465  4.64  0.  0.
466  4.65  0.  0.
467  4.66  0.  0.
468  4.67  0.  0.
469  4.68  0.  0.
470  4.69  0.  0.
471  4.70  0.  0.
472  4.71  0.  0.
473  4.72  0.  0.
474  4.73  0.  0.
475  4.74  0.  0.
476  4.75  0.  0.
477  4.76  0.  0.
478  4.77  0.  0.
479  4.78  0.  0.
480  4.79  0.  0.
481  4.80  0.  0.
482  4.81  0.  0.
483  4.82  0.  0.
484  4.83  0.  0.
485  4.84  0.  0.
486  4.85  0.  0.
487  4.86  0.  0.
488  4.87  0.  0.
489  4.88  0.  0.
490  4.89  0.  0.
491  4.90  0.  0.
492  4.91  0.  0.
493  4.92  0.  0.
494  4.93  0.  0.
495  4.94  0.  0.
496  4.95  0.  0.
497  4.96  0.  0.
498  4.97  0.  0.
499  4.98  0.  0.
500  4.99  0.  0.
501  5.00  0.  0.
502  5.01  0.  0.
503  5.02  0.  0.
504  5.03  0.  0.
505  5.04  0.  0.
506  5.05  0.  0.
507  5.06  0.  0.
508  5.07  0.  0.
509  5.08  0.  0.
510  5.09  0.  0.
511  5.10  0.  0.
512  5.11  0.  0.
513  5.12  0.  0.
514  5.13  0.  0.
515  5.14  0.  0.
516  5.15  0.  0.
517  5.16  0.  0.
518  5.17  0.  0.
519  5.18  0.  0.
520  5.19  0.  0.
521  5.20  0.  0.
522  5.21  0.  0.
523  5.22  0.  0.
524  5.23  0.  0.
525  5.24  0.  0.
526  5.25  0.  0.
527  5.26  0.  0.
528  5.27  0.  0.
529  5.28  0.  0.
530  5.29  0.  0.
531  5.30  0.  0.
532  5.31  0.  0.
533  5.32  0.  0.
534  5.33  0.  0.
535  5.34  0.  0.
536  5.35  0.  0.
537  5.36  0.  0.
538  5.37  0.  0.
539  5.38  0.  0.
540  5.39  0.  0.
541  5.40  0.  0.
542  5.41  0.  0.
543  5.42  0.  0.
544  5.43  0.  0.
545  5.44  0.  0.
546  5.45  0.  0.
547  5.46  0.  0.
548  5.47  0.  0.
549  5.48  0.  0.
550  5.49  0.  0.
551  5.50  0.  0.
552  5.51  0.  0.
553  5.52  0.  0.
554  5.53  0.  0.
555  5.54  0.  0.
556  5.55  0.  0.
557  5.56  0.  0.
558  5.57  0.  0.
559  5.58  0.  0.
560  5.59  0.  0.
561  5.60  0.  0.
562  5.61  0.  0.
563  5.62  0.  0.
564  5.63  0.  0.
565  5.64  0.  0.
566  5.65  0.  0.
567  5.66  0.  0.
568  5.67  0.  0.
569  5.68  0.  0.
570  5.69  0.  0.
571  5.70  0.  0.
572  5.71  0.  0.
573  5.72  0.  0.
574  5.73  0.  0.
575  5.74  0.  0.
576  5.75  0.  0.
577  5.76  0.  0.
578  5.77  0.  0.
579  5.78  0.  0.
580  5.79  0.  0.
581  5.80  0.  0.
582  5.81  0.  0.
583  5.82  0.  0.
584  5.83  0.  0.
585  5.84  0.  0.
586  5.85  0.  0.
587  5.86  0.  0.
588  5.87  0.  0.
589  5.88  0.  0.
590  5.89  0.  0.
591  5.90  0.  0.
592  5.91  0.  0.
593  5.92  0.  0.
594  5.93  0.  0.
595  5.94  0.  0.
596  5.95  0.  0.
597  5.96  0.  0.
598  5.97  0.  0.
599  5.98  0.  0.
600  5.99  0.  0.
1                         3.6480877763535E+00  4.5969700799211E-01
1  0.0000000000000E+00  7.0225875808960E-10 -1.6222154314294E-09
2  1.0000000000000E-02  5.4957633380418E-04 -6.8404524180091E-04
3  2.0000000000000E-02  2.1951019114930E-03 -2.7291149702587E-03
4  3.0000000000000E-02  4.9270006969603E-03 -6.1140906724336E-03
5  4.0000000000000E-02  8.7294263624642E-03 -1.0804038865532E-02
6  5.0000000000000E-02  1.3580431545956E-02 -1.6750604058433E-02
7  6.0000000000000E-02  1.9452202143834E-02 -2.3892552739263E-02
8  7.0000000000000E-02  2.6311354006764E-02 -3.2156462311113E-02
9  8.0000000000000E-02  3.4119288703952E-02 -4.1457547275747E-02
10  9.0000000000000E-02  4.2832604355534E-02 -5.1700613426830E-02
11  1.0000000000000E-01  5.2403556911082E-02 -6.2781129376850E-02
12  1.1000000000000E-01  6.2780566681267E-02 -7.4586403420986E-02
13  1.2000000000000E-01  7.3908764415944E-02 -8.6996852551505E-02
14  1.3000000000000E-01  8.5730570770932E-02 -9.9887349390570E-02
15  1.4000000000000E-01  9.8186302622598E-02 -1.1312863191960E-01
16  1.5000000000000E-01  1.1121479937836E-01 -1.2658876015894E-01
17  1.6000000000000E-01  1.2475406219580E-01 -1.4013460340126E-01
18  1.7000000000000E-01  1.3874189886604E-01 -1.5363334123121E-01
19  1.8000000000000E-01  1.5311656704019E-01 -1.6695396137792E-01
20  1.9000000000000E-01  1.6781740848200E-01 -1.7996873744696E-01
21  2.0000000000000E-01  1.8278546711539E-01 -1.9255466976570E-01
22  2.1000000000000E-01  1.9796408380167E-01 -2.0459487294846E-01
23  2.2000000000000E-01  2.1329946102638E-01 -2.1597989434181E-01
24  2.3000000000000E-01  2.2874119099675E-01 -2.2660894824017E-01
25  2.4000000000000E-01  2.4424274104538E-01 -2.3639105166026E-01
26  2.5000000000000E-01  2.5976189069884E-01 -2.4524604851971E-01
27  2.6000000000000E-01  2.7526111529730E-01 -2.5310551027038E-01
28  2.7000000000000E-01  2.9070791163676E-01 -2.5991350237668E-01
29  2.8000000000000E-01  3.0607506174332E-01 -2.6562720749002E-01
30  2.9000000000000E-01  3.2134083157227E-01 -2.7021739773680E-01
31  3.0000000000000E-01  3.3648910214563E-01 -2.7366875019140E-01
32  3.1000000000000E-01  3.5150943139326E-01 -2.7598000133189E-01
33  3.2000000000000E-01  3.6639704573649E-01 -2.7716393805307E-01
34  3.3000000000000E-01  3.8115276123984E-01 -2.7724722462278E-01
35  3.4000000000000E-01  3.9578283494964E-01 -2.7627006679164E-01
36  3.5000000000000E-01  4.1029874782669E-01 -2.7428571608455E-01
37  3.6000000000000E-01  4.2471692145764E-01 -2.7135981909452E-01
38  3.7000000000000E-01  4.3905837148566E-01 -2.6756961834613E-01
39  3.8000000000000E-01  4.5334830142888E-01 -2.6300301297792E-01
40  3.9000000000000E-01  4.6761564124504E-01 -2.5775748909220E-01
41  4.0000000000000E-01  4.8189253564714E-01 -2.5193893111862E-01
42  4.1000000000000E-01  4.9621378776836E-01 -2.4566032691911E-01
43  4.2000000000000E-01  5.1061626431002E-01 -2.3904038060946E-01
44  4.3000000000000E-01  5.2513826877704E-01 -2.3220204817400E-01
45  4.4000000000000E-01  5.3981888980578E-01 -2.2527101189173E-01
46  4.5000000000000E-01  5.5469733191497E-01 -2.1837411036322E-01
47  4.6000000000000E-01  5.6981223625740E-01 -2.1163774152013E-01
48  4.7000000000000E-01  5.8520099911538E-01 -2.0518625640397E-01
49  4.8000000000000E-01  6.0089909596423E-01 -1.9914036171487E-01
50  4.9000000000000E-01  6.1693941892406E-01 -1.9361554914926E-01
51  5.0000000000000E-01  6.3335163533045E-01 -1.8872056936785E-01
52  5.1000000000000E-01  6.5016157497969E-01 -1.8455596806255E-01
53  5.2000000000000E-01  6.6739065334574E-01 -1.8121270102597E-01
54  5.3000000000000E-01  6.8505533772584E-01 -1.7877084437519E-01
55  5.4000000000000E-01  7.0316666285386E-01 -1.7729841514978E-01
56  5.5000000000000E-01  7.2172980202777E-01 -1.7685031640168E-01
57  5.6000000000000E-01  7.4074369923637E-01 -1.7746741963204E-01
58  5.7000000000000E-01  7.6020076714545E-01 -1.7917579602117E-01
59  5.8000000000000E-01  7.8008665512094E-01 -1.8198610635589E-01
60  5.9000000000000E-01  8.0038009073479E-01 -1.8589315789953E-01
61  6.0000000000000E-01  8.2105279742393E-01 -1.9087563469217E-01
62  6.1000000000000E-01  8.4206949016346E-01 -1.9689600592850E-01
63  6.2000000000000E-01  8.6338795017988E-01 -2.0390061515955E-01
64  6.3000000000000E-01  8.8495917887748E-01 -2.1181995112065E-01
65  6.4000000000000E-01  9.0672763029042E-01 -2.2056909902334E-01
66  6.5000000000000E-01  9.2863152051359E-01 -2.3004836918299E-01
67  6.6000000000000E-01  9.5060321171595E-01 -2.4014409790965E-01
68  6.7000000000000E-01  9.7256966751035E-01 -2.5072961368551E-01
69  6.8000000000000E-01  9.9445297565273E-01 -2.6166635981170E-01
70  6.9000000000000E-01  1.0161709332795E+00 -2.7280516294731E-01
71  7.0000000000000E-01  1.0376376891739E+00 -2.8398763530626E-01
72  7.1000000000000E-01  1.0587644368870E+00 -2.9504769673898E-01
73  7.2000000000000E-01  1.0794601519367E+00 -3.0581320152501E-01
74  7.3000000000000E-01  1.0996323657714E+00 -3.1610765345369E-01
75  7.4000000000000E-01  1.1191879687245E+00 -3.2575199168845E-01
76  7.5000000000000E-01  1.1380340338050E+00 -3.3456642900780E-01
77  7.6000000000000E-01  1.1560786528693E+00 -3.4237232330376E-01
78  7.7000000000000E-01  1.1732317765135E+00 -3.4899406270540E-01
79  7.8000000000000E-01  1.1894060489041E+00 -3.5426094438714E-01
80  7.9000000000000E-01  1.2045176287395E+00 -3.5800902702429E-01
81  8.0000000000000E-01  1.2184869876027E+00 -3.6008293697307E-01
82  8.1000000000000E-01  1.2312396771265E+00 -3.6033760858054E-01
83  8.2000000000000E-01  1.2427070566455E+00 -3.5863993956774E-01
84  8.3000000000000E-01  1.2528269733530E+00 -3.5487034317461E-01
85  8.4000000000000E-01  1.2615443874128E+00 -3.4892417969918E-01
86  8.5000000000000E-01  1.2688119349904E+00 -3.4071305119917E-01
87  8.6000000000000E-01  1.2745904227598E+00 -3.3016594443947E-01
88  8.7000000000000E-01  1.2788492481104E+00 -3.1723020865252E-01
89  8.8000000000000E-01  1.2815667400095E+00 -3.0187235631418E-01
90  8.9000000000000E-01  1.2827304162669E+00 -2.8407867691064E-01
91  9.0000000000000E-01  1.2823371537906E+00 -2.6385565556331E-01
92  9.1000000000000E-01  1.2803932693096E+00 -2.4123019036970E-01
93  9.2000000000000E-01  1.2769145089537E+00 -2.1624960438862E-01
94  9.3000000000000E-01  1.2719259460275E+00 -1.8898145032669E-01
95  9.4000000000000E-01  1.2654617872687E+00 -1.5951310814707E-01
96  9.5000000000000E-01  1.2575650888442E+00 -1.2795117799900E-01
97  9.6000000000000E-01  1.2482873842906E+00 -9.4420673035171E-02