Ba    ONCVPSP-4.0.1  r_core=   1.95988   1.80243   1.90213
56.0000     10.0000      220126    zatom,zion,pspd
8      11   2     4   600     0    pspcod,pspxc,lmax,lloc,mmax,r2well
5.99000000  5.00000000  0.00000000    rchrg fchrg qchrg
2     2     2     0     0    nproj
1     1           extension_switch
0                         6.5120726328419E+00  6.2815984502311E-01
1  0.0000000000000E+00  4.5599080067404E-12 -3.7773180416867E-11
2  1.0000000000000E-02  2.5162189264702E-02 -3.5987210117409E-03
3  2.0000000000000E-02  5.0327144390309E-02 -7.2332207400715E-03
4  3.0000000000000E-02  7.5497548188820E-02 -1.0938962492717E-02
5  4.0000000000000E-02  1.0067591777580E-01 -1.4750780700537E-02
6  5.0000000000000E-02  1.2586452272449E-01 -1.8702571321771E-02
7  6.0000000000000E-02  1.5106530441959E-01 -2.2826988030934E-02
8  7.0000000000000E-02  1.7627979700530E-01 -2.7155146076365E-02
9  8.0000000000000E-02  2.0150905031768E-01 -3.1716335652628E-02
10  9.0000000000000E-02  2.2675355518560E-01 -3.6537746586745E-02
11  1.0000000000000E-01  2.5201317147760E-01 -4.1644206080883E-02
12  1.1000000000000E-01  2.7728705926357E-01 -4.7057931188398E-02
13  1.2000000000000E-01  3.0257361345070E-01 -5.2798297625610E-02
14  1.3000000000000E-01  3.2787040224204E-01 -5.8881626437991E-02
15  1.4000000000000E-01  3.5317410975357E-01 -6.5320989947219E-02
16  1.5000000000000E-01  3.7848048311196E-01 -7.2126038304800E-02
17  1.6000000000000E-01  4.0378428433961E-01 -7.9302847868812E-02
18  1.7000000000000E-01  4.2907924731652E-01 -8.6853792503442E-02
19  1.8000000000000E-01  4.5435804009035E-01 -9.4777438776284E-02
20  1.9000000000000E-01  4.7961223278531E-01 -1.0306846589667E-01
21  2.0000000000000E-01  5.0483227133908E-01 -1.1171761109942E-01
22  2.1000000000000E-01  5.3000745727332E-01 -1.2071164103396E-01
23  2.2000000000000E-01  5.5512593367822E-01 -1.3003334956785E-01
24  2.3000000000000E-01  5.8017467756490E-01 -1.3966158225799E-01
25  2.4000000000000E-01  6.0513949871111E-01 -1.4957128758331E-01
26  2.5000000000000E-01  6.3000504509588E-01 -1.5973359486818E-01
27  2.6000000000000E-01  6.5475481498763E-01 -1.7011591865996E-01
28  2.7000000000000E-01  6.7937117571771E-01 -1.8068208915493E-01
29  2.8000000000000E-01  7.0383538913743E-01 -1.9139250809791E-01
30  2.9000000000000E-01  7.2812764372206E-01 -2.0220432941041E-01
31  3.0000000000000E-01  7.5222709324931E-01 -2.1307166363439E-01
32  3.1000000000000E-01  7.7611190194361E-01 -2.2394580511118E-01
33  3.2000000000000E-01  7.9975929594023E-01 -2.3477548065258E-01
34  3.3000000000000E-01  8.2314562088626E-01 -2.4550711830139E-01
35  3.4000000000000E-01  8.4624640545803E-01 -2.5608513462568E-01
36  3.5000000000000E-01  8.6903643053734E-01 -2.6645223884424E-01
37  3.6000000000000E-01  8.9148980375225E-01 -2.7654975194176E-01
38  3.7000000000000E-01  9.1358003905219E-01 -2.8631793880338E-01
39  3.8000000000000E-01  9.3528014095230E-01 -2.9569635127876E-01
40  3.9000000000000E-01  9.5656269304816E-01 -3.0462417997857E-01
41  4.0000000000000E-01  9.7739995037032E-01 -3.1304061251215E-01
42  4.1000000000000E-01  9.9776393511787E-01 -3.2088519579371E-01
43  4.2000000000000E-01  1.0176265352826E+00 -3.2809819997970E-01
44  4.3000000000000E-01  1.0369596056502E+00 -3.3462098154928E-01
45  4.4000000000000E-01  1.0557350706423E+00 -3.4039634300766E-01
46  4.5000000000000E-01  1.0739250284438E+00 -3.4536888667643E-01
47  4.6000000000000E-01  1.0915018558451E+00 -3.4948536003811E-01
48  4.7000000000000E-01  1.1084383132153E+00 -3.5269499012421E-01
49  4.8000000000000E-01  1.1247076490138E+00 -3.5494980447709E-01
50  4.9000000000000E-01  1.1402837032453E+00 -3.5620493627692E-01
51  5.0000000000000E-01  1.1551410092616E+00 -3.5641891130540E-01
52  5.1000000000000E-01  1.1692548933173E+00 -3.5555391451854E-01
53  5.2000000000000E-01  1.1826015712964E+00 -3.5357603411988E-01
54  5.3000000000000E-01  1.1951582420396E+00 -3.5045548116511E-01
55  5.4000000000000E-01  1.2069031767191E+00 -3.4616678288605E-01
56  5.5000000000000E-01  1.2178158037312E+00 -3.4068894809735E-01
57  5.6000000000000E-01  1.2278767886021E+00 -3.3400560324160E-01
58  5.7000000000000E-01  1.2370681084348E+00 -3.2610509783666E-01
59  5.8000000000000E-01  1.2453731204591E+00 -3.1698057831129E-01
60  5.9000000000000E-01  1.2527766242871E+00 -3.0663002945155E-01
61  6.0000000000000E-01  1.2592649175187E+00 -2.9505628292709E-01
62  6.1000000000000E-01  1.2648258443878E+00 -2.8226699262410E-01
63  6.2000000000000E-01  1.2694488371921E+00 -2.6827457677603E-01
64  6.3000000000000E-01  1.2731249502979E+00 -2.5309612715414E-01
65  6.4000000000000E-01  1.2758468865711E+00 -2.3675328585423E-01
66  6.5000000000000E-01  1.2776090161374E+00 -2.1927209049139E-01
67  6.6000000000000E-01  1.2784073874381E+00 -2.0068278888908E-01
68  6.7000000000000E-01  1.2782397306039E+00 -1.8101962462042E-01
69  6.8000000000000E-01  1.2771054532305E+00 -1.6032059502413E-01
70  6.9000000000000E-01  1.2750056287003E+00 -1.3862718357528E-01
71  7.0000000000000E-01  1.2719429772527E+00 -1.1598406873549E-01
72  7.1000000000000E-01  1.2679218400649E+00 -9.2438811641495E-02
73  7.2000000000000E-01  1.2629481466606E+00 -6.8041525205855E-02
74  7.3000000000000E-01  1.2570293760199E+00 -4.2844527403552E-02
75  7.4000000000000E-01  1.2501745118126E+00 -1.6901981694977E-02
76  7.5000000000000E-01  1.2423939922282E+00  9.7304723078104E-03
77  7.6000000000000E-01  1.2336996549188E+00  3.6996094694066E-02
78  7.7000000000000E-01  1.2241046776085E+00  6.4837424285351E-02
79  7.8000000000000E-01  1.2136235149637E+00  9.3196657425538E-02
80  7.9000000000000E-01  1.2022718323412E+00  1.2201602306562E-01
81  8.0000000000000E-01  1.1900664370610E+00  1.5123815066087E-01
82  8.1000000000000E-01  1.1770252078653E+00  1.8080642741555E-01
83  8.2000000000000E-01  1.1631670232368E+00  2.1066534145548E-01
84  8.3000000000000E-01  1.1485116892567E+00  2.4076080759098E-01
85  8.4000000000000E-01  1.1330798676786E+00  2.7104047244458E-01
86  8.5000000000000E-01  1.1168930048871E+00  3.0145399586348E-01
87  8.6000000000000E-01  1.0999732623940E+00  3.3195330571471E-01
88  8.7000000000000E-01  1.0823434495043E+00  3.6249282336841E-01
89  8.8000000000000E-01  1.0640269587511E+00  3.9302965741450E-01
90  8.9000000000000E-01  1.0450477046678E+00  4.2352376342388E-01
91  9.0000000000000E-01  1.0254300664195E+00  4.5393806785959E-01
92  9.1000000000000E-01  1.0051988347697E+00  4.8423855456177E-01
93  9.2000000000000E-01  9.8437916380407E-01  5.1439431257041E-01
94  9.3000000000000E-01  9.6299652777276E-01  5.4437754441027E-01
95  9.4000000000000E-01  9.4107668334912E-01  5.7416353433959E-01
96  9.5000000000000E-01  9.1864563753555E-01  6.0373057645405E-01
97  9.6000000000000E-01  8.9572962137354E-01  6.3305986293816E-01
98  9.7000000000000E-01  8.7235506954111E-01  6.6213533316435E-01
99  9.8000000000000E-01  8.4854860584380E-01  6.9094348474906E-01
100  9.9000000000000E-01  8.2433703452656E-01  7.1947314808557E-01
101  1.0000000000000E+00  7.9974733725475E-01  7.4771522627801E-01
102  1.0100000000000E+00  7.7480667553375E-01  7.7566240279634E-01
103  1.0200000000000E+00  7.4954239825791E-01  8.0330881955658E-01
104  1.0300000000000E+00  7.2398205400412E-01  8.3064972849619E-01
105  1.0400000000000E+00  6.9815340761094E-01  8.5768112006231E-01
106  1.0500000000000E+00  6.7208446051448E-01  8.8439933235097E-01
107  1.0600000000000E+00  6.4580347424615E-01  9.1080064493103E-01
108  1.0700000000000E+00  6.1933899643689E-01  9.3688086164818E-01
109  1.0800000000000E+00  5.9271988861724E-01  9.6263488693265E-01
110  1.0900000000000E+00  5.6597535505457E-01  9.8805630032491E-01
111  1.1000000000000E+00  5.3913497182759E-01  1.0131369340825E+00
112  1.1100000000000E+00  5.1222871530492E-01  1.0378664588392E+00
113  1.1200000000000E+00  4.8528698916985E-01  1.0622319823482E+00
114  1.1300000000000E+00  4.5834064911725E-01  1.0862176663577E+00
115  1.1400000000000E+00  4.3142102434213E-01  1.1098043666337E+00
116  1.1500000000000E+00  4.0455993494192E-01  1.1329693010622E+00
117  1.1600000000000E+00  3.7778970436745E-01  1.1556857506360E+00
118  1.1700000000000E+00  3.5114316608018E-01  1.1779227979452E+00
119  1.1800000000000E+00  3.2465366360560E-01  1.1996451075681E+00
120  1.1900000000000E+00  2.9835504321544E-01  1.2208127524758E+00
121  1.2000000000000E+00  2.7228163852329E-01  1.2413810902482E+00
122  1.2100000000000E+00  2.4646824633982E-01  1.2613006925235E+00
123  1.2200000000000E+00  2.2095009320473E-01  1.2805173306995E+00
124  1.2300000000000E+00  1.9576279209145E-01  1.2989720204535E+00
125  1.2400000000000E+00  1.7094228886837E-01  1.3166011271611E+00
126  1.2500000000000E+00  1.4652479819466E-01  1.3333365337783E+00
127  1.2600000000000E+00  1.2254672863037E-01  1.3491058722044E+00
128  1.2700000000000E+00  9.9044596847665E-02  1.3638328185708E+00
129  1.2800000000000E+00  7.6054930941688E-02  1.3774374523138E+00
130  1.2900000000000E+00  5.3614162955944E-02  1.3898366782825E+00
131  1.3000000000000E+00  3.1758510855650E-02  1.4009447105194E+00
132  1.3100000000000E+00  1.0523850303361E-02  1.4106736157346E+00
133  1.3200000000000E+00 -1.0054423288017E-02  1.4189339138780E+00
134  1.3300000000000E+00 -2.9941541828257E-02  1.4256352326035E+00
135  1.3400000000000E+00 -4.9103520033558E-02  1.4306870118251E+00
136  1.3500000000000E+00 -6.7507318489449E-02  1.4339992539866E+00
137  1.3600000000000E+00 -8.5121013348911E-02  1.4354833151136E+00
138  1.3700000000000E+00 -1.0191397161462E-01  1.4350527311923E+00
139  1.3800000000000E+00 -1.1785703085381E-01  1.4326240739319E+00
140  1.3900000000000E+00 -1.3292268210089E-01  1.4281178295205E+00
141  1.4000000000000E+00 -1.4708525461835E-01  1.4214592935771E+00
142  1.4100000000000E+00 -1.6032110111107E-01  1.4125794751537E+00
143  1.4200000000000E+00 -1.7260878192487E-01  1.4014160023360E+00
144  1.4300000000000E+00 -1.8392924670621E-01  1.3879140217540E+00
145  1.4400000000000E+00 -1.9426601195899E-01  1.3720270841259E+00
146  1.4500000000000E+00 -2.0360533290559E-01  1.3537180078453E+00
147  1.4600000000000E+00 -2.1193636804369E-01  1.3329597125639E+00
148  1.4700000000000E+00 -2.1925133478901E-01  1.3097360147402E+00
149  1.4800000000000E+00 -2.2554565460616E-01  1.2840423772041E+00
150  1.4900000000000E+00 -2.3081808605630E-01  1.2558866049411E+00
151  1.5000000000000E+00 -2.3507084423121E-01  1.2252894795198E+00
152  1.5100000000000E+00 -2.3830970509780E-01  1.1922853248735E+00
153  1.5200000000000E+00 -2.4054409334651E-01  1.1569224975050E+00
154  1.5300000000000E+00 -2.4178715241904E-01  1.1192637946010E+00
155  1.5400000000000E+00 -2.4205579548681E-01  1.0793867740268E+00
156  1.5500000000000E+00 -2.4137073625946E-01  1.0373839807119E+00
157  1.5600000000000E+00 -2.3975649862289E-01  9.9336307453532E-01
158  1.5700000000000E+00 -2.3724140423721E-01  9.4744685546572E-01
159  1.5800000000000E+00 -2.3385753736590E-01  8.9977318240552E-01
160  1.5900000000000E+00 -2.2964068635757E-01  8.5049478292309E-01
161  1.6000000000000E+00 -2.2463026135924E-01  7.9977895182704E-01
162  1.6100000000000E+00 -2.1886918800439E-01  7.4780713733386E-01
163  1.6200000000000E+00 -2.1240377698830E-01  6.9477441440297E-01
164  1.6300000000000E+00 -2.0528356961681E-01  6.4088884565007E-01
165  1.6400000000000E+00 -1.9756115958965E-01  5.8637073109481E-01
166  1.6500000000000E+00 -1.8929199145656E-01  5.3145174884734E-01
167  1.6600000000000E+00 -1.8053413635965E-01  4.7637398968024E-01
168  1.6700000000000E+00 -1.7134804584946E-01  4.2138888926215E-01
169  1.6800000000000E+00 -1.6179628473203E-01  3.6675606263890E-01
170  1.6900000000000E+00 -1.5194324406893E-01  3.1274204633136E-01
171  1.7000000000000E+00 -1.4185483561024E-01  2.5961895416735E-01
172  1.7100000000000E+00 -1.3159816909058E-01  2.0766305367416E-01
173  1.7200000000000E+00 -1.2124121395842E-01  1.5715327051889E-01
174  1.7300000000000E+00 -1.1085244723881E-01  1.0836962909244E-01
175  1.7400000000000E+00 -1.0050048934700E-01  6.1591637882644E-02
176  1.7500000000000E+00 -9.0253729775172E-02  1.7096628767612E-02
177  1.7600000000000E+00 -8.0179944664469E-02 -2.4841940222360E-02
178  1.7700000000000E+00 -7.0345908350115E-02 -6.3956208781322E-02
179  1.7800000000000E+00 -6.0817000997265E-02 -9.9985654858411E-02
180  1.7900000000000E+00 -5.1656814436121E-02 -1.3267884193166E-01
181  1.8000000000000E+00 -4.2926761479949E-02 -1.6179514433605E-01
182  1.8100000000000E+00 -3.4685681300277E-02 -1.8710649757879E-01
183  1.8200000000000E+00 -2.6989704036562E-02 -2.0839759304847E-01
184  1.8300000000000E+00 -1.9892243776765E-02 -2.2546540477010E-01
185  1.8400000000000E+00 -1.3443813418590E-02 -2.3811993736235E-01
186  1.8500000000000E+00 -7.6917095613457E-03 -2.4618565273334E-01
187  1.8600000000000E+00 -2.6797851623285E-03 -2.4950262747881E-01
188  1.8700000000000E+00  1.5510214622057E-03 -2.4792600298640E-01
189  1.8800000000000E+00  4.9632061680182E-03 -2.4132753355982E-01
190  1.8900000000000E+00  7.5252543237814E-03 -2.2960161372477E-01
191  1.9000000000000E+00  9.2099766351801E-03 -2.1266249719835E-01
192  1.9100000000000E+00  9.9946639388408E-03 -1.9044499651931E-01
193  1.9200000000000E+00  9.8611994438347E-03 -1.6290504805413E-01
194  1.9300000000000E+00  8.7836422171176E-03 -1.2988109029164E-01
195  1.9400000000000E+00  6.8661223622326E-03 -9.2637920591206E-02
196  1.9500000000000E+00  3.6835765161990E-03 -4.6432823155931E-02
197  1.9600000000000E+00 -1.9816272186016E-05  2.4523398981584E-04
198  1.9700000000000E+00 -1.3134599924552E-04  1.6097835013196E-03
199  1.98  0. -0.
200  1.99 -0.  0.
201  2.00  0. -0.
202  2.01  0.  0.
203  2.02  0.  0.
204  2.03  0.  0.
205  2.04  0.  0.
206  2.05  0.  0.
207  2.06  0.  0.
208  2.07  0.  0.
209  2.08  0.  0.
210  2.09  0.  0.
211  2.10  0.  0.
212  2.11  0.  0.
213  2.12  0.  0.
214  2.13  0.  0.
215  2.14  0.  0.
216  2.15  0.  0.
217  2.16  0.  0.
218  2.17  0.  0.
219  2.18  0.  0.
220  2.19  0.  0.
221  2.20  0.  0.
222  2.21  0.  0.
223  2.22  0.  0.
224  2.23  0.  0.
225  2.24  0.  0.
226  2.25  0.  0.
227  2.26  0.  0.
228  2.27  0.  0.
229  2.28  0.  0.
230  2.29  0.  0.
231  2.30  0.  0.
232  2.31  0.  0.
233  2.32  0.  0.
234  2.33  0.  0.
235  2.34  0.  0.
236  2.35  0.  0.
237  2.36  0.  0.
238  2.37  0.  0.
239  2.38  0.  0.
240  2.39  0.  0.
241  2.40  0.  0.
242  2.41  0.  0.
243  2.42  0.  0.
244  2.43  0.  0.
245  2.44  0.  0.
246  2.45  0.  0.
247  2.46  0.  0.
248  2.47  0.  0.
249  2.48  0.  0.
250  2.49  0.  0.
251  2.50  0.  0.
252  2.51  0.  0.
253  2.52  0.  0.
254  2.53  0.  0.
255  2.54  0.  0.
256  2.55  0.  0.
257  2.56  0.  0.
258  2.57  0.  0.
259  2.58  0.  0.
260  2.59  0.  0.
261  2.60  0.  0.
262  2.61  0.  0.
263  2.62  0.  0.
264  2.63  0.  0.
265  2.64  0.  0.
266  2.65  0.  0.
267  2.66  0.  0.
268  2.67  0.  0.
269  2.68  0.  0.
270  2.69  0.  0.
271  2.70  0.  0.
272  2.71  0.  0.
273  2.72  0.  0.
274  2.73  0.  0.
275  2.74  0.  0.
276  2.75  0.  0.
277  2.76  0.  0.
278  2.77  0.  0.
279  2.78  0.  0.
280  2.79  0.  0.
281  2.80  0.  0.
282  2.81  0.  0.
283  2.82  0.  0.
284  2.83  0.  0.
285  2.84  0.  0.
286  2.85  0.  0.
287  2.86  0.  0.
288  2.87  0.  0.
289  2.88  0.  0.
290  2.89  0.  0.
291  2.90  0.  0.
292  2.91  0.  0.
293  2.92  0.  0.
294  2.93  0.  0.
295  2.94  0.  0.
296  2.95  0.  0.
297  2.96  0.  0.
298  2.97  0.  0.
299  2.98  0.  0.
300  2.99  0.  0.
301  3.00  0.  0.
302  3.01  0.  0.
303  3.02  0.  0.
304  3.03  0.  0.
305  3.04  0.  0.
306  3.05  0.  0.
307  3.06  0.  0.
308  3.07  0.  0.
309  3.08  0.  0.
310  3.09  0.  0.
311  3.10  0.  0.
312  3.11  0.  0.
313  3.12  0.  0.
314  3.13  0.  0.
315  3.14  0.  0.
316  3.15  0.  0.
317  3.16  0.  0.
318  3.17  0.  0.
319  3.18  0.  0.
320  3.19  0.  0.
321  3.20  0.  0.
322  3.21  0.  0.
323  3.22  0.  0.
324  3.23  0.  0.
325  3.24  0.  0.
326  3.25  0.  0.
327  3.26  0.  0.
328  3.27  0.  0.
329  3.28  0.  0.
330  3.29  0.  0.
331  3.30  0.  0.
332  3.31  0.  0.
333  3.32  0.  0.
334  3.33  0.  0.
335  3.34  0.  0.
336  3.35  0.  0.
337  3.36  0.  0.
338  3.37  0.  0.
339  3.38  0.  0.
340  3.39  0.  0.
341  3.40  0.  0.
342  3.41  0.  0.
343  3.42  0.  0.
344  3.43  0.  0.
345  3.44  0.  0.
346  3.45  0.  0.
347  3.46  0.  0.
348  3.47  0.  0.
349  3.48  0.  0.
350  3.49  0.  0.
351  3.50  0.  0.
352  3.51  0.  0.
353  3.52  0.  0.
354  3.53  0.  0.
355  3.54  0.  0.
356  3.55  0.  0.
357  3.56  0.  0.
358  3.57  0.  0.
359  3.58  0.  0.
360  3.59  0.  0.
361  3.60  0.  0.
362  3.61  0.  0.
363  3.62  0.  0.
364  3.63  0.  0.
365  3.64  0.  0.
366  3.65  0.  0.
367  3.66  0.  0.
368  3.67  0.  0.
369  3.68  0.  0.
370  3.69  0.  0.
371  3.70  0.  0.
372  3.71  0.  0.
373  3.72  0.  0.
374  3.73  0.  0.
375  3.74  0.  0.
376  3.75  0.  0.
377  3.76  0.  0.
378  3.77  0.  0.
379  3.78  0.  0.
380  3.79  0.  0.
381  3.80  0.  0.
382  3.81  0.  0.
383  3.82  0.  0.
384  3.83  0.  0.
385  3.84  0.  0.
386  3.85  0.  0.
387  3.86  0.  0.
388  3.87  0.  0.
389  3.88  0.  0.
390  3.89  0.  0.
391  3.90  0.  0.
392  3.91  0.  0.
393  3.92  0.  0.
394  3.93  0.  0.
395  3.94  0.  0.
396  3.95  0.  0.
397  3.96  0.  0.
398  3.97  0.  0.
399  3.98  0.  0.
400  3.99  0.  0.
401  4.00  0.  0.
402  4.01  0.  0.
403  4.02  0.  0.
404  4.03  0.  0.
405  4.04  0.  0.
406  4.05  0.  0.
407  4.06  0.  0.
408  4.07  0.  0.
409  4.08  0.  0.
410  4.09  0.  0.
411  4.10  0.  0.
412  4.11  0.  0.
413  4.12  0.  0.
414  4.13  0.  0.
415  4.14  0.  0.
416  4.15  0.  0.
417  4.16  0.  0.
418  4.17  0.  0.
419  4.18  0.  0.
420  4.19  0.  0.
421  4.20  0.  0.
422  4.21  0.  0.
423  4.22  0.  0.
424  4.23  0.  0.
425  4.24  0.  0.
426  4.25  0.  0.
427  4.26  0.  0.
428  4.27  0.  0.
429  4.28  0.  0.
430  4.29  0.  0.
431  4.30  0.  0.
432  4.31  0.  0.
433  4.32  0.  0.
434  4.33  0.  0.
435  4.34  0.  0.
436  4.35  0.  0.
437  4.36  0.  0.
438  4.37  0.  0.
439  4.38  0.  0.
440  4.39  0.  0.
441  4.40  0.  0.
442  4.41  0.  0.
443  4.42  0.  0.
444  4.43  0.  0.
445  4.44  0.  0.
446  4.45  0.  0.
447  4.46  0.  0.
448  4.47  0.  0.
449  4.48  0.  0.
450  4.49  0.  0.
451  4.50  0.  0.
452  4.51  0.  0.
453  4.52  0.  0.
454  4.53  0.  0.
455  4.54  0.  0.
456  4.55  0.  0.
457  4.56  0.  0.
458  4.57  0.  0.
459  4.58  0.  0.
460  4.59  0.  0.
461  4.60  0.  0.
462  4.61  0.  0.
463  4.62  0.  0.
464  4.63  0.  0.
465  4.64  0.  0.
466  4.65  0.  0.
467  4.66  0.  0.
468  4.67  0.  0.
469  4.68  0.  0.
470  4.69  0.  0.
471  4.70  0.  0.
472  4.71  0.  0.
473  4.72  0.  0.
474  4.73  0.  0.
475  4.74  0.  0.
476  4.75  0.  0.
477  4.76  0.  0.
478  4.77  0.  0.
479  4.78  0.  0.
480  4.79  0.  0.
481  4.80  0.  0.
482  4.81  0.  0.
483  4.82  0.  0.
484  4.83  0.  0.
485  4.84  0.  0.
486  4.85  0.  0.
487  4.86  0.  0.
488  4.87  0.  0.
489  4.88  0.  0.
490  4.89  0.  0.
491  4.90  0.  0.
492  4.91  0.  0.
493  4.92  0.  0.
494  4.93  0.  0.
495  4.94  0.  0.
496  4.95  0.  0.
497  4.96  0.  0.
498  4.97  0.  0.
499  4.98  0.  0.
500  4.99  0.  0.
501  5.00  0.  0.
502  5.01  0.  0.
503  5.02  0.  0.
504  5.03  0.  0.
505  5.04  0.  0.
506  5.05  0.  0.
507  5.06  0.  0.
508  5.07  0.  0.
509  5.08  0.  0.
510  5.09  0.  0.
511  5.10  0.  0.
512  5.11  0.  0.
513  5.12  0.  0.
514  5.13  0.  0.
515  5.14  0.  0.
516  5.15  0.  0.
517  5.16  0.  0.
518  5.17  0.  0.
519  5.18  0.  0.
520  5.19  0.  0.
521  5.20  0.  0.
522  5.21  0.  0.
523  5.22  0.  0.
524  5.23  0.  0.
525  5.24  0.  0.
526  5.25  0.  0.
527  5.26  0.  0.
528  5.27  0.  0.
529  5.28  0.  0.
530  5.29  0.  0.
531  5.30  0.  0.
532  5.31  0.  0.
533  5.32  0.  0.
534  5.33  0.  0.
535  5.34  0.  0.
536  5.35  0.  0.
537  5.36  0.  0.
538  5.37  0.  0.
539  5.38  0.  0.
540  5.39  0.  0.
541  5.40  0.  0.
542  5.41  0.  0.
543  5.42  0.  0.
544  5.43  0.  0.
545  5.44  0.  0.
546  5.45  0.  0.
547  5.46  0.  0.
548  5.47  0.  0.
549  5.48  0.  0.
550  5.49  0.  0.
551  5.50  0.  0.
552  5.51  0.  0.
553  5.52  0.  0.
554  5.53  0.  0.
555  5.54  0.  0.
556  5.55  0.  0.
557  5.56  0.  0.
558  5.57  0.  0.
559  5.58  0.  0.
560  5.59  0.  0.
561  5.60  0.  0.
562  5.61  0.  0.
563  5.62  0.  0.
564  5.63  0.  0.
565  5.64  0.  0.
566  5.65  0.  0.
567  5.66  0.  0.
568  5.67  0.  0.
569  5.68  0.  0.
570  5.69  0.  0.
571  5.70  0.  0.
572  5.71  0.  0.
573  5.72  0.  0.
574  5.73  0.  0.
575  5.74  0.  0.
576  5.75  0.  0.
577  5.76  0.  0.
578  5.77  0.  0.
579  5.78  0.  0.
580  5.79  0.  0.
581  5.80  0.  0.
582  5.81  0.  0.
583  5.82  0.  0.
584  5.83  0.  0.
585  5.84  0.  0.
586  5.85  0.  0.
587  5.86  0.  0.
588  5.87  0.  0.
589  5.88  0.  0.
590  5.89  0.  0.
591  5.90  0.  0.
592  5.91  0.  0.
593  5.92  0.  0.
594  5.93  0.  0.
595  5.94  0.  0.
596  5.95  0.  0.
597  5.96  0.  0.
598  5.97  0.  0.
599  5.98  0.  0.
600  5.99  0.  0.
1                         5.3292557742581E+00  5.0504379195129E-01
1  0.0000000000000E+00  2.1435413583015E-09 -8.0443339975367E-09
2  1.0000000000000E-02  7.3213623004414E-04 -9.9692233899918E-04
3  2.0000000000000E-02  2.9234439737579E-03 -3.9708268725216E-03
4  3.0000000000000E-02  6.5586963748048E-03 -8.8714094596416E-03
5  4.0000000000000E-02  1.1612767393331E-02 -1.5615769644241E-02
6  5.0000000000000E-02  1.8051005627879E-02 -2.4089804342919E-02
7  6.0000000000000E-02  2.5829749216587E-02 -3.4150127305379E-02
8  7.0000000000000E-02  3.4896973527596E-02 -4.5626483241681E-02
9  8.0000000000000E-02  4.5193061205045E-02 -5.8324617466422E-02
10  9.0000000000000E-02  5.6651682157424E-02 -7.2029554479695E-02
11  1.0000000000000E-01  6.9200769290776E-02 -8.6509232206157E-02
12  1.1000000000000E-01  8.2763574228370E-02 -1.0151843275199E-01
13  1.2000000000000E-01  9.7259785946061E-02 -1.1680294560879E-01
14  1.3000000000000E-01  1.1260669420932E-01 -1.3210389531126E-01
15  1.4000000000000E-01  1.2872037894110E-01 -1.4716216270638E-01
16  1.5000000000000E-01  1.4551690619128E-01 -1.6172282726138E-01
17  1.6000000000000E-01  1.6291351122687E-01 -1.7553955725606E-01
18  1.7000000000000E-01  1.8082974942000E-01 -1.8837887528455E-01
19  1.8000000000000E-01  1.9918859607653E-01 -2.0002422822472E-01
20  1.9000000000000E-01  2.1791747711571E-01 -2.1027979369804E-01
21  2.0000000000000E-01  2.3694921356919E-01 -2.1897395899566E-01
22  2.1000000000000E-01  2.5622286420021E-01 -2.2596241343063E-01
23  2.2000000000000E-01  2.7568445213137E-01 -2.3113080101629E-01
24  2.3000000000000E-01  2.9528756318782E-01 -2.3439688717754E-01
25  2.4000000000000E-01  3.1499380568396E-01 -2.3571220077200E-01
26  2.5000000000000E-01  3.3477312357626E-01 -2.3506312091609E-01
27  2.6000000000000E-01  3.5460395723724E-01 -2.3247138685222E-01
28  2.7000000000000E-01  3.7447324854137E-01 -2.2799401822142E-01
29  2.8000000000000E-01  3.9437628945504E-01 -2.2172264248250E-01
30  2.9000000000000E-01  4.1431641584961E-01 -2.1378223569666E-01
31  3.0000000000000E-01  4.3430455077175E-01 -2.0432929233016E-01
32  3.1000000000000E-01  4.5435860386723E-01 -1.9354944896843E-01
33  3.2000000000000E-01  4.7450273602617E-01 -1.8165459573894E-01
34  3.3000000000000E-01  4.9476650056053E-01 -1.6887951766635E-01
35  3.4000000000000E-01  5.1518387430400E-01 -1.5547811599863E-01
36  3.5000000000000E-01  5.3579219390577E-01 -1.4171926662147E-01
37  3.6000000000000E-01  5.5663101424356E-01 -1.2788237890750E-01
38  3.7000000000000E-01  5.7774090727999E-01 -1.1425272362288E-01
39  3.8000000000000E-01  5.9916222080696E-01 -1.0111660275152E-01
40  3.9000000000000E-01  6.2093381734540E-01 -8.8756437222528E-02
41  4.0000000000000E-01  6.4309181397869E-01 -7.7445850485205E-02
42  4.1000000000000E-01  6.6566834408659E-01 -6.7444826629910E-02
43  4.2000000000000E-01  6.8869036180763E-01 -5.8995021283010E-02
44  4.3000000000000E-01  7.1217850959175E-01 -5.2315301809045E-02
45  4.4000000000000E-01  7.3614606841643E-01 -4.7597590451219E-02
46  4.5000000000000E-01  7.6059800913799E-01 -4.5003079969154E-02
47  4.6000000000000E-01  7.8553016205076E-01 -4.4658886144918E-02
48  4.7000000000000E-01  8.1092852004910E-01 -4.6655195297191E-02
49  4.8000000000000E-01  8.3676868885498E-01 -5.1042957757712E-02
50  4.9000000000000E-01  8.6301549561487E-01 -5.7832170227341E-02
51  5.0000000000000E-01  8.8962276481505E-01 -6.6990781159152E-02
52  5.1000000000000E-01  9.1653326794995E-01 -7.8444243942151E-02
53  5.2000000000000E-01  9.4367885073976E-01 -9.2075732821246E-02
54  5.3000000000000E-01  9.7098073897203E-01 -1.0772702633461E-01
55  5.4000000000000E-01  9.9835002127811E-01 -1.2520005273225E-01
56  5.5000000000000E-01  1.0256883043903E+00 -1.4425908151630E-01
57  5.6000000000000E-01  1.0528885337039E+00 -1.6463353507266E-01
58  5.7000000000000E-01  1.0798359693288E+00 -1.8602138450259E-01
59  5.8000000000000E-01  1.1064093053027E+00 -2.0809308436479E-01
60  5.9000000000000E-01  1.1324819172902E+00 -2.3049599225105E-01
61  6.0000000000000E-01  1.1579232219418E+00 -2.5285921108179E-01
62  6.1000000000000E-01  1.1826001291809E+00 -2.7479878484995E-01
63  6.2000000000000E-01  1.2063785670409E+00 -2.9592317237986E-01
64  6.3000000000000E-01  1.2291250573271E+00 -3.1583891860455E-01
65  6.4000000000000E-01  1.2507083193489E+00 -3.3415643898631E-01
66  6.5000000000000E-01  1.2710008782742E+00 -3.5049583008120E-01
67  6.6000000000000E-01  1.2898806543134E+00 -3.6449261792890E-01
68  6.7000000000000E-01  1.3072325089562E+00 -3.7580335596579E-01
69  6.8000000000000E-01  1.3229497248602E+00 -3.8411098552415E-01
70  6.9000000000000E-01  1.3369353967247E+00 -3.8912987468255E-01
71  7.0000000000000E-01  1.3491037115675E+00 -3.9061045524552E-01
72  7.1000000000000E-01  1.3593810982484E+00 -3.8834338290167E-01
73  7.2000000000000E-01  1.3677072278211E+00 -3.8216315207314E-01
74  7.3000000000000E-01  1.3740358483345E+00 -3.7195110453504E-01
75  7.4000000000000E-01  1.3783354400094E+00 -3.5763777944890E-01
76  7.5000000000000E-01  1.3805896792528E+00 -3.3920456189708E-01
77  7.6000000000000E-01  1.3807977027136E+00 -3.1668459719060E-01
78  7.7000000000000E-01  1.3789741654780E+00 -2.9016294900410E-01
79  7.8000000000000E-01  1.3751490905163E+00 -2.5977599061046E-01
80  7.9000000000000E-01  1.3693675095811E+00 -2.2571002997884E-01
81  8.0000000000000E-01  1.3616888988669E+00 -1.8819918109196E-01
82  8.1000000000000E-01  1.3521864158360E+00 -1.4752250535782E-01
83  8.2000000000000E-01  1.3409459466396E+00 -1.0400045826338E-01
84  8.3000000000000E-01  1.3280649764766E+00 -5.7990687269919E-02
85  8.4000000000000E-01  1.3136512979893E+00 -9.8832372157685E-03
86  8.5000000000000E-01  1.2978215753460E+00  3.9904770989302E-02
87  8.6000000000000E-01  1.2806997839788E+00  9.0934913972005E-02
88  8.7000000000000E-01  1.2624155479776E+00  1.4275360981283E-01
89  8.8000000000000E-01  1.2431023988691E+00  1.9489854385199E-01
90  8.9000000000000E-01  1.2228959808929E+00  2.4690528280116E-01
91  9.0000000000000E-01  1.2019322289137E+00  2.9831397977124E-01
92  9.1000000000000E-01  1.1803455457426E+00  3.4867607044540E-01
93  9.2000000000000E-01  1.1582670058944E+00  3.9756085971849E-01
94  9.3000000000000E-01  1.1358226126425E+00  4.4456189871846E-01
95  9.4000000000000E-01  1.1131316346802E+00  4.8930305422625E-01
96  9.5000000000000E-01  1.0903050477320E+00  5.3144417610056E-01
97  9.6000000000000E-01  1.0674441051147E+00  5.7068627335419E-01
98  9.7000000000000E-01  1.0446390595274E+00  6.0677611595688E-01
99  9.8000000000000E-01  1.0219680562809E+00  6.3951018717107E-01
100  9.9000000000000E-01  9.9949621578782E-01  6.6873792016358E-01
101  1.0000000000000E+00  9.7727492045353E-01  6.9436416265088E-01
102  1.0100000000000E+00  9.5534131818021E-01  7.1635082428895E-01
103  1.0200000000000E+00  9.3371805155289E-01  7.3471767326108E-01
104  1.0300000000000E+00  9.1241321847081E-01  7.4954226088063E-01
105  1.0400000000000E+00  8.9142056656396E-01  7.6095896582201E-01
106  1.0500000000000E+00  8.7071992024342E-01  7.6915716264927E-01
107  1.0600000000000E+00  8.5027783572344E-01  7.7437853243873E-01
108  1.0700000000000E+00  8.3004847588567E-01  7.7691354626303E-01
109  1.0800000000000E+00  8.0997469346612E-01  7.7709716498334E-01
110  1.0900000000000E+00  7.8998930780264E-01  7.7530381093102E-01
111  1.1000000000000E+00  7.7001655732237E-01  7.7194167850544E-01
112  1.1100000000000E+00  7.4997370712342E-01  7.6744646129254E-01
113  1.1200000000000E+00  7.2977278846635E-01  7.6227458281713E-01
114  1.1300000000000E+00  7.0932244476075E-01  7.5689602639893E-01
115  1.1400000000000E+00  6.8852985677045E-01  7.5178686656687E-01
116  1.1500000000000E+00  6.6730271827233E-01  7.4742161007413E-01
117  1.1600000000000E+00  6.4555123233797E-01  7.4426545856849E-01
118  1.1700000000000E+00  6.2319009776510E-01  7.4276660740138E-01
119  1.1800000000000E+00  6.0014045499250E-01  7.4334869581221E-01
120  1.1900000000000E+00  5.7633176108922E-01  7.4640352279330E-01
121  1.2000000000000E+00  5.5170356411800E-01  7.5228414032233E-01
122  1.2100000000000E+00  5.2620714832561E-01  7.6129843137042E-01
123  1.2200000000000E+00  4.9980702320650E-01  7.7370327416800E-01
124  1.2300000000000E+00  4.7248223147554E-01  7.8969938680311E-01
125  1.2400000000000E+00  4.4422745338743E-01  8.0942693727862E-01
126  1.2500000000000E+00  4.1505388757562E-01  8.3296199395354E-01
127  1.2600000000000E+00  3.8498989164628E-01  8.6031387987152E-01
128  1.2700000000000E+00  3.5408136911277E-01  8.9142348197501E-01
129  1.2800000000000E+00  3.2239189281605E-01  9.2616255291412E-01
130  1.2900000000000E+00  2.9000255873047E-01  9.6433402913742E-01
131  1.3000000000000E+00  2.5701156793931E-01  1.0056733744374E+00
132  1.3100000000000E+00  2.2353353850715E-01  1.0498509433868E+00
133  1.3200000000000E+00  1.8969855293772E-01  1.0964753442894E+00
134  1.3300000000000E+00  1.5565095083887E-01  1.1450977665558E+00
135  1.3400000000000E+00  1.2154788023083E-01  1.1952172231408E+00
136  1.3500000000000E+00  8.7557624592183E-02  1.2462866449775E+00
137  1.3600000000000E+00  5.3857726202791E-02  1.2977197513623E+00
138  1.3700000000000E+00  2.0632929526427E-02  1.3488986083083E+00