In    ONCVPSP-4.0.1  r_core=   2.10981   2.36376   1.80591   2.01122
49.0000     13.0000      220201    zatom,zion,pspd
8      11   3     4   600     0    pspcod,pspxc,lmax,lloc,mmax,r2well
5.99000000  5.00000000  0.00000000    rchrg fchrg qchrg
2     2     2     1     0    nproj
1     1           extension_switch
0                         9.5458198432244E+00  1.5756396962621E+00
1  0.0000000000000E+00  1.4901913036880E-11 -2.2878338112875E-11
2  1.0000000000000E-02  2.7139974188790E-02 -1.3522483175499E-02
3  2.0000000000000E-02  5.4242228253121E-02 -2.7006476994834E-02
4  3.0000000000000E-02  8.1269191515445E-02 -4.0413629845784E-02
5  4.0000000000000E-02  1.0818359183865E-01 -5.3705865405935E-02
6  5.0000000000000E-02  1.3494860400890E-01 -6.6845519786346E-02
7  6.0000000000000E-02  1.6152799704270E-01 -7.9795478057102E-02
8  7.0000000000000E-02  1.8788628004161E-01 -9.2519309921246E-02
9  8.0000000000000E-02  2.1398884620331E-01 -1.0498140428072E-01
10  9.0000000000000E-02  2.3980211457931E-01 -1.1714710241011E-01
11  1.0000000000000E-01  2.6529366914927E-01 -1.2898282942181E-01
12  1.1000000000000E-01  2.9043239475854E-01 -1.4045622367008E-01
13  1.2000000000000E-01  3.1518860944069E-01 -1.5153626370237E-01
14  1.3000000000000E-01  3.3953419262105E-01 -1.6219339232470E-01
15  1.4000000000000E-01  3.6344270867010E-01 -1.7239963730477E-01
16  1.5000000000000E-01  3.8688952524964E-01 -1.8212872819264E-01
17  1.6000000000000E-01  4.0985192586831E-01 -1.9135620869541E-01
18  1.7000000000000E-01  4.3230921603898E-01 -2.0005954399982E-01
19  1.8000000000000E-01  4.5424282240824E-01 -2.0821822239653E-01
20  1.9000000000000E-01  4.7563638420928E-01 -2.1581385052290E-01
21  2.0000000000000E-01  4.9647583637326E-01 -2.2283024150796E-01
22  2.1000000000000E-01  5.1674948362397E-01 -2.2925349527552E-01
23  2.2000000000000E-01  5.3644806487345E-01 -2.3507207023939E-01
24  2.3000000000000E-01  5.5556480723659E-01 -2.4027684560980E-01
25  2.4000000000000E-01  5.7409546898795E-01 -2.4486117352257E-01
26  2.5000000000000E-01  5.9203837079718E-01 -2.4882092020389E-01
27  2.6000000000000E-01  6.0939441459920E-01 -2.5215449539381E-01
28  2.7000000000000E-01  6.2616708948317E-01 -2.5486286927138E-01
29  2.8000000000000E-01  6.4236246402028E-01 -2.5694957615483E-01
30  2.9000000000000E-01  6.5798916449459E-01 -2.5842070429056E-01
31  3.0000000000000E-01  6.7305833855397E-01 -2.5928487109680E-01
32  3.1000000000000E-01  6.8758360385980E-01 -2.5955318329001E-01
33  3.2000000000000E-01  7.0158098138388E-01 -2.5923918139583E-01
34  3.3000000000000E-01  7.1506881307949E-01 -2.5835876823097E-01
35  3.4000000000000E-01  7.2806766374055E-01 -2.5693012103723E-01
36  3.5000000000000E-01  7.4060020695675E-01 -2.5497358705434E-01
37  3.6000000000000E-01  7.5269109517495E-01 -2.5251156243312E-01
38  3.7000000000000E-01  7.6436681398574E-01 -2.4956835451425E-01
39  3.8000000000000E-01  7.7565552086880E-01 -2.4617002763022E-01
40  3.9000000000000E-01  7.8658686875135E-01 -2.4234423272714E-01
41  4.0000000000000E-01  7.9719181485851E-01 -2.3812002124848E-01
42  4.1000000000000E-01  8.0750241546307E-01 -2.3352764387323E-01
43  4.2000000000000E-01  8.1755160727299E-01 -2.2859833485505E-01
44  4.3000000000000E-01  8.2737297632744E-01 -2.2336408286527E-01
45  4.4000000000000E-01  8.3700051540481E-01 -2.1785738939948E-01
46  4.5000000000000E-01  8.4646837107759E-01 -2.1211101596401E-01
47  4.6000000000000E-01  8.5581058167879E-01 -2.0615772141266E-01
48  4.7000000000000E-01  8.6506080756972E-01 -2.0002999095336E-01
49  4.8000000000000E-01  8.7425205522031E-01 -1.9375975848941E-01
50  4.9000000000000E-01  8.8341639672732E-01 -1.8737812409606E-01
51  5.0000000000000E-01  8.9258468650259E-01 -1.8091506856122E-01
52  5.1000000000000E-01  9.0178627696165E-01 -1.7439916703563E-01
53  5.2000000000000E-01  9.1104873513016E-01 -1.6785730394275E-01
54  5.3000000000000E-01  9.2039756216211E-01 -1.6131439138837E-01
55  5.4000000000000E-01  9.2985591782653E-01 -1.5479309338547E-01
56  5.5000000000000E-01  9.3944435206951E-01 -1.4831355826785E-01
57  5.6000000000000E-01  9.4918054579213E-01 -1.4189316170538E-01
58  5.7000000000000E-01  9.5907906300435E-01 -1.3554626275515E-01
59  5.8000000000000E-01  9.6915111651659E-01 -1.2928397538230E-01
60  5.9000000000000E-01  9.7940434931533E-01 -1.2311395786342E-01
61  6.0000000000000E-01  9.8984263373643E-01 -1.1704022244285E-01
62  6.1000000000000E-01  1.0004658904976E+00 -1.1106296754623E-01
63  6.2000000000000E-01  1.0112699295822E+00 -1.0517843476843E-01
64  6.3000000000000E-01  1.0222463148766E+00 -9.9378792741386E-02
65  6.4000000000000E-01  1.0333822543575E+00 -9.3652049854425E-02
66  6.5000000000000E-01  1.0446605174977E+00 -8.7981997643496E-02
67  6.6000000000000E-01  1.0560593814168E+00 -8.2348186488257E-02
68  6.7000000000000E-01  1.0675526071411E+00 -7.6725935057229E-02
69  6.8000000000000E-01  1.0791094471585E+00 -7.1086374722515E-02
70  6.9000000000000E-01  1.0906946852624E+00 -6.5396529928369E-02
71  7.0000000000000E-01  1.1022687094681E+00 -5.9619435242790E-02
72  7.1000000000000E-01  1.1137876185646E+00 -5.3714289551297E-02
73  7.2000000000000E-01  1.1252033626325E+00 -4.7636647567255E-02
74  7.3000000000000E-01  1.1364639176111E+00 -4.1338648537503E-02
75  7.4000000000000E-01  1.1475134937503E+00 -3.4769281716204E-02
76  7.5000000000000E-01  1.1582927775189E+00 -2.7874687866696E-02
77  7.6000000000000E-01  1.1687392062808E+00 -2.0598495734210E-02
78  7.7000000000000E-01  1.1787872747808E+00 -1.2882192112076E-02
79  7.8000000000000E-01  1.1883688722162E+00 -4.6655238054190E-03
80  7.9000000000000E-01  1.1974136484045E+00  4.1130705190757E-03
81  8.0000000000000E-01  1.2058494072949E+00  1.3516000917969E-02
82  8.1000000000000E-01  1.2136025258171E+00  2.3606041810740E-02
83  8.2000000000000E-01  1.2205983958117E+00  3.4445825582490E-02
84  8.3000000000000E-01  1.2267618865534E+00  4.6097317330291E-02
85  8.4000000000000E-01  1.2320178251517E+00  5.8621274188662E-02
86  8.5000000000000E-01  1.2362914919083E+00  7.2076692903949E-02
87  8.6000000000000E-01  1.2395091275199E+00  8.6520249538053E-02
88  8.7000000000000E-01  1.2415984488406E+00  1.0200573536763E-01
89  8.8000000000000E-01  1.2424891697754E+00  1.1858349320160E-01
90  8.9000000000000E-01  1.2421135237416E+00  1.3629985846696E-01
91  9.0000000000000E-01  1.2404067840398E+00  1.5519660950767E-01
92  9.1000000000000E-01  1.2373077783977E+00  1.7531043160198E-01
93  9.2000000000000E-01  1.2327593939022E+00  1.9667239922949E-01
94  9.3000000000000E-01  1.2267090685165E+00  2.1930748110753E-01
95  9.4000000000000E-01  1.2191092653896E+00  2.4323407246880E-01
96  9.5000000000000E-01  1.2099179262037E+00  2.6846355896500E-01
97  9.6000000000000E-01  1.1990988998782E+00  2.9499991645684E-01
98  9.7000000000000E-01  1.1866223430470E+00  3.2283935078770E-01
99  9.8000000000000E-01  1.1724650888605E+00  3.5196998143771E-01
100  9.9000000000000E-01  1.1566109808216E+00  3.8237157271650E-01
101  1.0000000000000E+00  1.1390511685571E+00  4.1401531588027E-01
102  1.0100000000000E+00  1.1197843626456E+00  4.4686366524931E-01
103  1.0200000000000E+00  1.0988170458669E+00  4.8087023106181E-01
104  1.0300000000000E+00  1.0761636385096E+00  5.1597973142784E-01
105  1.0400000000000E+00  1.0518466156713E+00  5.5212800534741E-01
106  1.0500000000000E+00  1.0258965747997E+00  5.8924208833089E-01
107  1.0600000000000E+00  9.9835225206250E-01  6.2724035171203E-01
108  1.0700000000000E+00  9.6926048648768E-01  6.6603270627694E-01
109  1.0800000000000E+00  9.3867613118457E-01  7.0552087034802E-01
110  1.0900000000000E+00  9.0666191133821E-01  7.4559870196830E-01
111  1.1000000000000E+00  8.7328822905985E-01  7.8615259432640E-01
112  1.1100000000000E+00  8.3863291557229E-01  8.2706193305658E-01
113  1.1200000000000E+00  8.0278093160956E-01  8.6819961353881E-01
114  1.1300000000000E+00  7.6582401730835E-01  9.0943261582275E-01
115  1.1400000000000E+00  7.2786029326578E-01  9.5062263430238E-01
116  1.1500000000000E+00  6.8899381482536E-01  9.9162675878858E-01
117  1.1600000000000E+00  6.4933408203339E-01  1.0322982031601E+00
118  1.1700000000000E+00  6.0899550807170E-01  1.0724870773316E+00
119  1.1800000000000E+00  5.6809684932323E-01  1.1120411978590E+00
120  1.1900000000000E+00  5.2676060055352E-01  1.1508069321130E+00
121  1.2000000000000E+00  4.8511235899994E-01  1.1886300705985E+00
122  1.2100000000000E+00  4.4328016143918E-01  1.2253567216768E+00
123  1.2200000000000E+00  4.0139379855691E-01  1.2608342226716E+00
124  1.2300000000000E+00  3.5958411116534E-01  1.2949120611006E+00
125  1.2400000000000E+00  3.1798227300238E-01  1.3274427995907E+00
126  1.2500000000000E+00  2.7671906500099E-01  1.3582829978877E+00
127  1.2600000000000E+00  2.3592414603395E-01  1.3872941252840E+00
128  1.2700000000000E+00  1.9572532521846E-01  1.4143434567459E+00
129  1.2800000000000E+00  1.5624784090537E-01  1.4393049460384E+00
130  1.2900000000000E+00  1.1761365147732E-01  1.4620600692077E+00
131  1.3000000000000E+00  7.9940743040309E-02  1.4824986319079E+00
132  1.3100000000000E+00  4.3342459011390E-02  1.5005195342273E+00
133  1.3200000000000E+00  7.9268564845565E-03  1.5160314869023E+00
134  1.3300000000000E+00 -2.6203905904579E-02  1.5289536730817E+00
135  1.3400000000000E+00 -5.8954144094850E-02  1.5392163501369E+00
136  1.3500000000000E+00 -9.0235184413532E-02  1.5467613863912E+00
137  1.3600000000000E+00 -1.1996585507904E-01  1.5515427280626E+00
138  1.3700000000000E+00 -1.4807292969067E-01  1.5535267921849E+00
139  1.3800000000000E+00 -1.7449151934442E-01  1.5526927817763E+00
140  1.3900000000000E+00 -1.9916541038195E-01  1.5490329200655E+00
141  1.4000000000000E+00 -2.2204734517677E-01  1.5425526011654E+00
142  1.4100000000000E+00 -2.4309924377885E-01  1.5332704551766E+00
143  1.4200000000000E+00 -2.6229236468112E-01  1.5212183263388E+00
144  1.4300000000000E+00 -2.7960740342571E-01  1.5064411634823E+00
145  1.4400000000000E+00 -2.9503452823776E-01  1.4889968226916E+00
146  1.4500000000000E+00 -3.0857335235417E-01  1.4689557827564E+00
147  1.4600000000000E+00 -3.2023284319688E-01  1.4464007746489E+00
148  1.4700000000000E+00 -3.3003116902845E-01  1.4214263269310E+00
149  1.4800000000000E+00 -3.3799548420921E-01  1.3941382296467E+00
150  1.4900000000000E+00 -3.4416165465200E-01  1.3646529198980E+00
151  1.5000000000000E+00 -3.4857392553675E-01  1.3330967929169E+00
152  1.5100000000000E+00 -3.5128453379797E-01  1.2996054430478E+00
153  1.5200000000000E+00 -3.5235326833217E-01  1.2643228396146E+00
154  1.5300000000000E+00 -3.5184698128141E-01  1.2274004431802E+00
155  1.5400000000000E+00 -3.4983905413626E-01  1.1889962681951E+00
156  1.5500000000000E+00 -3.4640882275705E-01  1.1492738984801E+00
157  1.5600000000000E+00 -3.4164096573622E-01  1.1084014623860E+00
158  1.5700000000000E+00 -3.3562486081476E-01  1.0665505748214E+00
159  1.5800000000000E+00 -3.2845391431743E-01  1.0238952536314E+00
160  1.5900000000000E+00 -3.2022486878382E-01  9.8061081804703E-01
161  1.6000000000000E+00 -3.1103709414337E-01  9.3687277709863E-01
162  1.6100000000000E+00 -3.0099186791018E-01  8.9285571600197E-01
163  1.6200000000000E+00 -2.9019164995680E-01  8.4873218857536E-01
164  1.6300000000000E+00 -2.7873935746484E-01  8.0467162373446E-01
165  1.6400000000000E+00 -2.6673764564300E-01  7.6083925403444E-01
166  1.6500000000000E+00 -2.5428819975051E-01  7.1739507408897E-01
167  1.6600000000000E+00 -2.4149104386643E-01  6.7449283649312E-01
168  1.6700000000000E+00 -2.2844387170274E-01  6.3227909261282E-01
169  1.6800000000000E+00 -2.1524140456764E-01  5.9089228523693E-01
170  1.6900000000000E+00 -2.0197478136590E-01  5.5046189977942E-01
171  1.7000000000000E+00 -1.8873098564770E-01  5.1110768273759E-01
172  1.7100000000000E+00 -1.7559231728050E-01  4.7293895551128E-01
173  1.7200000000000E+00 -1.6263599890050E-01  4.3605458760401E-01
174  1.7300000000000E+00 -1.4993386486068E-01  4.0054318405905E-01
175  1.7400000000000E+00 -1.3755202788560E-01  3.6648280557113E-01
176  1.7500000000000E+00 -1.2555058057200E-01  3.3394064690409E-01
177  1.7600000000000E+00 -1.1398335340477E-01  3.0297281535063E-01
178  1.7700000000000E+00 -1.0289772834421E-01  2.7362419293414E-01
179  1.7800000000000E+00 -9.2334509415404E-02  2.4592838603790E-01
180  1.7900000000000E+00 -8.2327850919655E-02  2.1990776280768E-01
181  1.8000000000000E+00 -7.2905243384519E-02  1.9557357779651E-01
182  1.8100000000000E+00 -6.4087556909271E-02  1.7292618272180E-01
183  1.8200000000000E+00 -5.5889141089931E-02  1.5195532151067E-01
184  1.8300000000000E+00 -4.8317980251322E-02  1.3264050717660E-01
185  1.8400000000000E+00 -4.1375902263737E-02  1.1495147743265E-01
186  1.8500000000000E+00 -3.5058838781026E-02  9.8848725300955E-02
187  1.8600000000000E+00 -2.9357134323864E-02  8.4284100413779E-02
188  1.8700000000000E+00 -2.4255901235652E-02  7.1201476150791E-02
189  1.8800000000000E+00 -1.9735417164557E-02  5.9537477206607E-02
190  1.8900000000000E+00 -1.5771561387162E-02  4.9222261751548E-02
191  1.9000000000000E+00 -1.2336285968344E-02  4.0180351865933E-02
192  1.9100000000000E+00 -9.3981174815794E-03  3.2331505590146E-02
193  1.9200000000000E+00 -6.9226847664286E-03  2.5591623584526E-02
194  1.9300000000000E+00 -4.8732679919228E-03  1.9873683107015E-02
195  1.9400000000000E+00 -3.2113641307849E-03  1.5088691813313E-02
196  1.9500000000000E+00 -1.8972638245267E-03  1.1146653730229E-02
197  1.9600000000000E+00 -8.9063453271414E-04  7.9575396384056E-03
198  1.9700000000000E+00 -1.5109674684009E-04  5.4322430612896E-03
199  1.9800000000000E+00  3.6113203465235E-04  3.4836230493595E-03
200  1.9900000000000E+00  6.8485062331471E-04  2.0271888013671E-03
201  2.0000000000000E+00  8.5709231170129E-04  9.8231991098338E-04
202  2.0100000000000E+00  9.1002152497055E-04  2.7663525546918E-04
203  2.0200000000000E+00  8.6701184600628E-04 -1.4855156377275E-04
204  2.0300000000000E+00  7.5866937800674E-04 -3.5993939674497E-04
205  2.0400000000000E+00  6.1460938507518E-04 -4.2087130543183E-04
206  2.0500000000000E+00  4.5916351127603E-04 -3.8536975555770E-04
207  2.0600000000000E+00  3.1191569548063E-04 -2.9878394982530E-04
208  2.0700000000000E+00  1.8718636437380E-04 -1.9700620471372E-04
209  2.0800000000000E+00  9.3718932726226E-05 -1.0597776844183E-04
210  2.0900000000000E+00  3.4388003445367E-05 -4.1220183164267E-05
211  2.1000000000000E+00  6.5120035533875E-06 -8.2636278403531E-06
212  2.1100000000000E+00  7.0366638099917E-08 -9.3094979297739E-08
213  2.1200000000000E+00 -8.4130471300449E-08  1.2970387571900E-07
214  2.13  0. -0.
215  2.14 -0.  0.
216  2.15 -0.  0.
217  2.16 -0.  0.
218  2.17  0.  0.
219  2.18  0.  0.
220  2.19  0.  0.
221  2.20  0.  0.
222  2.21  0.  0.
223  2.22  0.  0.
224  2.23  0.  0.
225  2.24  0.  0.
226  2.25  0.  0.
227  2.26  0.  0.
228  2.27  0.  0.
229  2.28  0.  0.
230  2.29  0.  0.
231  2.30  0.  0.
232  2.31  0.  0.
233  2.32  0.  0.
234  2.33  0.  0.
235  2.34  0.  0.
236  2.35  0.  0.
237  2.36  0.  0.
238  2.37  0.  0.
239  2.38  0.  0.
240  2.39  0.  0.
241  2.40  0.  0.
242  2.41  0.  0.
243  2.42  0.  0.
244  2.43  0.  0.
245  2.44  0.  0.
246  2.45  0.  0.
247  2.46  0.  0.
248  2.47  0.  0.
249  2.48  0.  0.
250  2.49  0.  0.
251  2.50  0.  0.
252  2.51  0.  0.
253  2.52  0.  0.
254  2.53  0.  0.
255  2.54  0.  0.
256  2.55  0.  0.
257  2.56  0.  0.
258  2.57  0.  0.
259  2.58  0.  0.
260  2.59  0.  0.
261  2.60  0.  0.
262  2.61  0.  0.
263  2.62  0.  0.
264  2.63  0.  0.
265  2.64  0.  0.
266  2.65  0.  0.
267  2.66  0.  0.
268  2.67  0.  0.
269  2.68  0.  0.
270  2.69  0.  0.
271  2.70  0.  0.
272  2.71  0.  0.
273  2.72  0.  0.
274  2.73  0.  0.
275  2.74  0.  0.
276  2.75  0.  0.
277  2.76  0.  0.
278  2.77  0.  0.
279  2.78  0.  0.
280  2.79  0.  0.
281  2.80  0.  0.
282  2.81  0.  0.
283  2.82  0.  0.
284  2.83  0.  0.
285  2.84  0.  0.
286  2.85  0.  0.
287  2.86  0.  0.
288  2.87  0.  0.
289  2.88  0.  0.
290  2.89  0.  0.
291  2.90  0.  0.
292  2.91  0.  0.
293  2.92  0.  0.
294  2.93  0.  0.
295  2.94  0.  0.
296  2.95  0.  0.
297  2.96  0.  0.
298  2.97  0.  0.
299  2.98  0.  0.
300  2.99  0.  0.
301  3.00  0.  0.
302  3.01  0.  0.
303  3.02  0.  0.
304  3.03  0.  0.
305  3.04  0.  0.
306  3.05  0.  0.
307  3.06  0.  0.
308  3.07  0.  0.
309  3.08  0.  0.
310  3.09  0.  0.
311  3.10  0.  0.
312  3.11  0.  0.
313  3.12  0.  0.
314  3.13  0.  0.
315  3.14  0.  0.
316  3.15  0.  0.
317  3.16  0.  0.
318  3.17  0.  0.
319  3.18  0.  0.
320  3.19  0.  0.
321  3.20  0.  0.
322  3.21  0.  0.
323  3.22  0.  0.
324  3.23  0.  0.
325  3.24  0.  0.
326  3.25  0.  0.
327  3.26  0.  0.
328  3.27  0.  0.
329  3.28  0.  0.
330  3.29  0.  0.
331  3.30  0.  0.
332  3.31  0.  0.
333  3.32  0.  0.
334  3.33  0.  0.
335  3.34  0.  0.
336  3.35  0.  0.
337  3.36  0.  0.
338  3.37  0.  0.
339  3.38  0.  0.
340  3.39  0.  0.
341  3.40  0.  0.
342  3.41  0.  0.
343  3.42  0.  0.
344  3.43  0.  0.
345  3.44  0.  0.
346  3.45  0.  0.
347  3.46  0.  0.
348  3.47  0.  0.
349  3.48  0.  0.
350  3.49  0.  0.
351  3.50  0.  0.
352  3.51  0.  0.
353  3.52  0.  0.
354  3.53  0.  0.
355  3.54  0.  0.
356  3.55  0.  0.
357  3.56  0.  0.
358  3.57  0.  0.
359  3.58  0.  0.
360  3.59  0.  0.
361  3.60  0.  0.
362  3.61  0.  0.
363  3.62  0.  0.
364  3.63  0.  0.
365  3.64  0.  0.
366  3.65  0.  0.
367  3.66  0.  0.
368  3.67  0.  0.
369  3.68  0.  0.
370  3.69  0.  0.
371  3.70  0.  0.
372  3.71  0.  0.
373  3.72  0.  0.
374  3.73  0.  0.
375  3.74  0.  0.
376  3.75  0.  0.
377  3.76  0.  0.
378  3.77  0.  0.
379  3.78  0.  0.
380  3.79  0.  0.
381  3.80  0.  0.
382  3.81  0.  0.
383  3.82  0.  0.
384  3.83  0.  0.
385  3.84  0.  0.
386  3.85  0.  0.
387  3.86  0.  0.
388  3.87  0.  0.
389  3.88  0.  0.
390  3.89  0.  0.
391  3.90  0.  0.
392  3.91  0.  0.
393  3.92  0.  0.
394  3.93  0.  0.
395  3.94  0.  0.
396  3.95  0.  0.
397  3.96  0.  0.
398  3.97  0.  0.
399  3.98  0.  0.
400  3.99  0.  0.
401  4.00  0.  0.
402  4.01  0.  0.
403  4.02  0.  0.
404  4.03  0.  0.
405  4.04  0.  0.
406  4.05  0.  0.
407  4.06  0.  0.
408  4.07  0.  0.
409  4.08  0.  0.
410  4.09  0.  0.
411  4.10  0.  0.
412  4.11  0.  0.
413  4.12  0.  0.
414  4.13  0.  0.
415  4.14  0.  0.
416  4.15  0.  0.
417  4.16  0.  0.
418  4.17  0.  0.
419  4.18  0.  0.
420  4.19  0.  0.
421  4.20  0.  0.
422  4.21  0.  0.
423  4.22  0.  0.
424  4.23  0.  0.
425  4.24  0.  0.
426  4.25  0.  0.
427  4.26  0.  0.
428  4.27  0.  0.
429  4.28  0.  0.
430  4.29  0.  0.
431  4.30  0.  0.
432  4.31  0.  0.
433  4.32  0.  0.
434  4.33  0.  0.
435  4.34  0.  0.
436  4.35  0.  0.
437  4.36  0.  0.
438  4.37  0.  0.
439  4.38  0.  0.
440  4.39  0.  0.
441  4.40  0.  0.
442  4.41  0.  0.
443  4.42  0.  0.
444  4.43  0.  0.
445  4.44  0.  0.
446  4.45  0.  0.
447  4.46  0.  0.
448  4.47  0.  0.
449  4.48  0.  0.
450  4.49  0.  0.
451  4.50  0.  0.
452  4.51  0.  0.
453  4.52  0.  0.
454  4.53  0.  0.
455  4.54  0.  0.
456  4.55  0.  0.
457  4.56  0.  0.
458  4.57  0.  0.
459  4.58  0.  0.
460  4.59  0.  0.
461  4.60  0.  0.
462  4.61  0.  0.
463  4.62  0.  0.
464  4.63  0.  0.
465  4.64  0.  0.
466  4.65  0.  0.
467  4.66  0.  0.
468  4.67  0.  0.
469  4.68  0.  0.
470  4.69  0.  0.
471  4.70  0.  0.
472  4.71  0.  0.
473  4.72  0.  0.
474  4.73  0.  0.
475  4.74  0.  0.
476  4.75  0.  0.
477  4.76  0.  0.
478  4.77  0.  0.
479  4.78  0.  0.
480  4.79  0.  0.
481  4.80  0.  0.
482  4.81  0.  0.
483  4.82  0.  0.
484  4.83  0.  0.
485  4.84  0.  0.
486  4.85  0.  0.
487  4.86  0.  0.
488  4.87  0.  0.
489  4.88  0.  0.
490  4.89  0.  0.
491  4.90  0.  0.
492  4.91  0.  0.
493  4.92  0.  0.
494  4.93  0.  0.
495  4.94  0.  0.
496  4.95  0.  0.
497  4.96  0.  0.
498  4.97  0.  0.
499  4.98  0.  0.
500  4.99  0.  0.
501  5.00  0.  0.
502  5.01  0.  0.
503  5.02  0.  0.
504  5.03  0.  0.
505  5.04  0.  0.
506  5.05  0.  0.
507  5.06  0.  0.
508  5.07  0.  0.
509  5.08  0.  0.
510  5.09  0.  0.
511  5.10  0.  0.
512  5.11  0.  0.
513  5.12  0.  0.
514  5.13  0.  0.
515  5.14  0.  0.
516  5.15  0.  0.
517  5.16  0.  0.
518  5.17  0.  0.
519  5.18  0.  0.
520  5.19  0.  0.
521  5.20  0.  0.
522  5.21  0.  0.
523  5.22  0.  0.
524  5.23  0.  0.
525  5.24  0.  0.
526  5.25  0.  0.
527  5.26  0.  0.
528  5.27  0.  0.
529  5.28  0.  0.
530  5.29  0.  0.
531  5.30  0.  0.
532  5.31  0.  0.
533  5.32  0.  0.
534  5.33  0.  0.
535  5.34  0.  0.
536  5.35  0.  0.
537  5.36  0.  0.
538  5.37  0.  0.
539  5.38  0.  0.
540  5.39  0.  0.
541  5.40  0.  0.
542  5.41  0.  0.
543  5.42  0.  0.
544  5.43  0.  0.
545  5.44  0.  0.
546  5.45  0.  0.
547  5.46  0.  0.
548  5.47  0.  0.
549  5.48  0.  0.
550  5.49  0.  0.
551  5.50  0.  0.
552  5.51  0.  0.
553  5.52  0.  0.
554  5.53  0.  0.
555  5.54  0.  0.
556  5.55  0.  0.
557  5.56  0.  0.
558  5.57  0.  0.
559  5.58  0.  0.
560  5.59  0.  0.
561  5.60  0.  0.
562  5.61  0.  0.
563  5.62  0.  0.
564  5.63  0.  0.
565  5.64  0.  0.
566  5.65  0.  0.
567  5.66  0.  0.
568  5.67  0.  0.
569  5.68  0.  0.
570  5.69  0.  0.
571  5.70  0.  0.
572  5.71  0.  0.
573  5.72  0.  0.
574  5.73  0.  0.
575  5.74  0.  0.
576  5.75  0.  0.
577  5.76  0.  0.
578  5.77  0.  0.
579  5.78  0.  0.
580  5.79  0.  0.
581  5.80  0.  0.
582  5.81  0.  0.
583  5.82  0.  0.
584  5.83  0.  0.
585  5.84  0.  0.
586  5.85  0.  0.
587  5.86  0.  0.
588  5.87  0.  0.
589  5.88  0.  0.
590  5.89  0.  0.
591  5.90  0.  0.
592  5.91  0.  0.
593  5.92  0.  0.
594  5.93  0.  0.
595  5.94  0.  0.
596  5.95  0.  0.
597  5.96  0.  0.
598  5.97  0.  0.
599  5.98  0.  0.
600  5.99  0.  0.
1                         5.1929170524619E+00  8.3853357477141E-01
1  0.0000000000000E+00 -7.9331024215035E-10  1.2764312037894E-09
2  1.0000000000000E-02 -2.2870291961301E-04  7.6657183575173E-04
3  2.0000000000000E-02 -9.0959160978014E-04  3.0574967245780E-03
4  3.0000000000000E-02 -2.0270556509375E-03  6.8464833966373E-03
5  4.0000000000000E-02 -3.5552432082771E-03  1.2089981005268E-02
6  5.0000000000000E-02 -5.4583078489232E-03  1.8727578651059E-02
7  6.0000000000000E-02 -7.6907511391782E-03  2.6682559974162E-02
8  7.0000000000000E-02 -1.0197858103583E-02  3.5862608119385E-02
9  8.0000000000000E-02 -1.2916221834228E-02  4.6160655102144E-02
10  9.0000000000000E-02 -1.5774352775428E-02  5.7455868375145E-02
11  1.0000000000000E-01 -1.8693367481680E-02  6.9614766225570E-02
12  1.1000000000000E-01 -2.1587750961674E-02  8.2492452530046E-02
13  1.2000000000000E-01 -2.4366186083596E-02  9.5933960368836E-02
14  1.3000000000000E-01 -2.6932442932373E-02  1.0977569305988E-01
15  1.4000000000000E-01 -2.9186320482449E-02  1.2384695032516E-01
16  1.5000000000000E-01 -3.1024632484820E-02  1.3797152655373E-01
17  1.6000000000000E-01 -3.2342229068045E-02  1.5196936748318E-01
18  1.7000000000000E-01 -3.3033045223269E-02  1.6565827109100E-01
19  1.8000000000000E-01 -3.2991167085832E-02  1.7885561807196E-01
20  1.9000000000000E-01 -3.2111906742952E-02  1.9138011698313E-01
21  2.0000000000000E-01 -3.0292876190118E-02  2.0305354896521E-01
22  2.1000000000000E-01 -2.7435051029187E-02  2.1370249690040E-01
23  2.2000000000000E-01 -2.3443814549303E-02  2.2316004394386E-01
24  2.3000000000000E-01 -1.8229972957557E-02  2.3126742656682E-01
25  2.4000000000000E-01 -1.1710732728993E-02  2.3787562757461E-01
26  2.5000000000000E-01 -3.8106313238284E-03  2.4284689500893E-01
27  2.6000000000000E-01  5.5375871283317E-03  2.4605617340870E-01
28  2.7000000000000E-01  1.6392159154561E-02  2.4739243458210E-01
29  2.8000000000000E-01  2.8801559761293E-02  2.4675989583088E-01
30  2.9000000000000E-01  4.2803837684722E-02  2.4407911445847E-01
31  3.0000000000000E-01  5.8426034384793E-02  2.3928794838157E-01
32  3.1000000000000E-01  7.5683692427957E-02  2.3234237374079E-01
33  3.2000000000000E-01  9.4580458183064E-02  2.2321715156287E-01
34  3.3000000000000E-01  1.1510778298934E-01  2.1190633675536E-01
35  3.4000000000000E-01  1.3724472615142E-01  1.9842362400464E-01
36  3.5000000000000E-01  1.6095786228017E-01  1.8280252648998E-01
37  3.6000000000000E-01  1.8620129463617E-01  1.6509638470880E-01
38  3.7000000000000E-01  2.1291677525222E-01  1.4537820412090E-01
39  3.8000000000000E-01  2.4103393171902E-01  1.2374032175050E-01
40  3.9000000000000E-01  2.7047059962152E-01  1.0029390332245E-01
41  4.0000000000000E-01  3.0113325871978E-01  7.5168273942374E-02
42  4.1000000000000E-01  3.3291757008458E-01  4.8510086746503E-02
43  4.2000000000000E-01  3.6570901053209E-01  2.0482335335248E-02
44  4.3000000000000E-01  3.9938359986047E-01 -8.7367828474821E-03
45  4.4000000000000E-01  4.3380871558190E-01 -3.8955143730236E-02
46  4.5000000000000E-01  4.6884398907250E-01 -6.9968104731606E-02
47  4.6000000000000E-01  5.0434227633682E-01 -1.0156003292387E-01
48  4.7000000000000E-01  5.4015069590962E-01 -1.3350594130805E-01
49  4.8000000000000E-01  5.7611172580049E-01 -1.6557322027877E-01
50  4.9000000000000E-01  6.1206435083287E-01 -1.9752345047154E-01
51  5.0000000000000E-01  6.4784525124322E-01 -2.2911428240825E-01
52  5.1000000000000E-01  6.8329002299161E-01 -2.6010136769565E-01
53  5.2000000000000E-01  7.1823441989817E-01 -2.9024032599383E-01
54  5.3000000000000E-01  7.5251560746128E-01 -3.1928873156062E-01
55  5.4000000000000E-01  7.8597341803828E-01 -3.4700810289968E-01
56  5.5000000000000E-01  8.1845159697776E-01 -3.7316587889674E-01
57  5.6000000000000E-01  8.4979902928762E-01 -3.9753736482250E-01
58  5.7000000000000E-01  8.7987093650360E-01 -4.1990763171373E-01
59  5.8000000000000E-01  9.0853003359080E-01 -4.4007335291493E-01
60  5.9000000000000E-01  9.3564763596382E-01 -4.5784456197121E-01
61  6.0000000000000E-01  9.6110470704864E-01 -4.7304631660638E-01
62  6.1000000000000E-01  9.8479283722901E-01 -4.8552025419393E-01
63  6.2000000000000E-01  1.0066151455189E+00 -4.9512602493017E-01
64  6.3000000000000E-01  1.0264870958778E+00 -5.0174258983985E-01
65  6.4000000000000E-01  1.0443372207306E+00 -5.0526937178098E-01
66  6.5000000000000E-01  1.0601077449689E+00 -5.0562724875733E-01
67  6.6000000000000E-01  1.0737551044824E+00 -5.0275938008684E-01
68  6.7000000000000E-01  1.0852503541011E+00 -4.9663185730191E-01
69  6.8000000000000E-01  1.0945794607054E+00 -4.8723417306221E-01
70  6.9000000000000E-01  1.1017434781850E+00 -4.7457950283235E-01
71  7.0000000000000E-01  1.1067586018771E+00 -4.5870479560213E-01
72  7.1000000000000E-01  1.1096561011044E+00 -4.3967067149496E-01
73  7.2000000000000E-01  1.1104821294256E+00 -4.1756112570727E-01
74  7.3000000000000E-01  1.1092974132297E+00 -3.9248303983407E-01
75  7.4000000000000E-01  1.1061768203158E+00 -3.6456550325198E-01
76  7.5000000000000E-01  1.1012088111086E+00 -3.3395894883504E-01
77  7.6000000000000E-01  1.0944947761524E+00 -3.0083410885864E-01
78  7.7000000000000E-01  1.0861482644980E+00 -2.6538079848849E-01
79  7.8000000000000E-01  1.0762941085338E+00 -2.2780653574192E-01
80  7.9000000000000E-01  1.0650674517118E+00 -1.8833500823456E-01
81  8.0000000000000E-01  1.0526126864710E+00 -1.4720439837453E-01
82  8.1000000000000E-01  1.0390823104586E+00 -1.0466557992614E-01
83  8.2000000000000E-01  1.0246357098816E+00 -6.0980200025260E-02
84  8.3000000000000E-01  1.0094378794904E+00 -1.6418661777383E-02
85  8.4000000000000E-01  9.9365808928454E-01  2.8741976501736E-02
86  8.5000000000000E-01  9.7746850854522E-01  7.4220168543477E-02
87  8.6000000000000E-01  9.6104279822090E-01  1.1973209635984E-01
88  8.7000000000000E-01  9.4455468303257E-01  1.6499391741174E-01
89  8.8000000000000E-01  9.2817651490670E-01  2.0972402430081E-01
90  8.9000000000000E-01  9.1207783949244E-01  2.5364529835586E-01
91  9.0000000000000E-01  8.9642397757043E-01  2.9648733842420E-01
92  9.1000000000000E-01  8.8137463311195E-01  3.3798864627431E-01
93  9.2000000000000E-01  8.6708253960065E-01  3.7789875027031E-01
94  9.3000000000000E-01  8.5369215598338E-01  4.1598024938970E-01
95  9.4000000000000E-01  8.4133842327470E-01  4.5201076022081E-01
96  9.5000000000000E-01  8.3014559240257E-01  4.8578475029188E-01
97  9.6000000000000E-01  8.2022613335459E-01  5.1711524194424E-01
98  9.7000000000000E-01  8.1167973506797E-01  5.4583537196174E-01
99  9.8000000000000E-01  8.0459240480728E-01  5.7179979329909E-01
100  9.9000000000000E-01  7.9903567499767E-01  5.9488590650486E-01
101  1.0000000000000E+00  7.9506592463313E-01  6.1499490979954E-01
102  1.0100000000000E+00  7.9272382146671E-01  6.3205265823599E-01
103  1.0200000000000E+00  7.9203389021960E-01  6.4601032392490E-01
104  1.0300000000000E+00  7.9300421102686E-01  6.5684485093997E-01
105  1.0400000000000E+00  7.9562625127743E-01  6.6455920021171E-01
106  1.0500000000000E+00  7.9987483291331E-01  6.6918238146341E-01
107  1.0600000000000E+00  8.0570823613814E-01  6.7076927101827E-01
108  1.0700000000000E+00  8.1306843935621E-01  6.6940021610343E-01
109  1.0800000000000E+00  8.2188149402952E-01  6.6518042807632E-01
110  1.0900000000000E+00  8.3205803201501E-01  6.5823916878298E-01
111  1.1000000000000E+00  8.4349390182938E-01  6.4872873602144E-01
112  1.1100000000000E+00  8.5607092920563E-01  6.3682325579380E-01
113  1.1200000000000E+00  8.6965779624901E-01  6.2271729069411E-01
114  1.1300000000000E+00  8.8411103249463E-01  6.0662427535907E-01
115  1.1400000000000E+00  8.9927611020932E-01  5.8877479141122E-01
116  1.1500000000000E+00  9.1498863538733E-01  5.6941469571800E-01
117  1.1600000000000E+00  9.3107562505992E-01  5.4880311707924E-01
118  1.1700000000000E+00  9.4735686079082E-01  5.2721033761178E-01
119  1.1800000000000E+00  9.6364630755900E-01  5.0491557612974E-01
120  1.1900000000000E+00  9.7975358665453E-01  4.8220469169504E-01
121  1.2000000000000E+00  9.9548549072615E-01  4.5936782624456E-01
122  1.2100000000000E+00  1.0106475287361E+00  4.3669700576507E-01
123  1.2200000000000E+00  1.0250454882933E+00  4.1448371989137E-01
124  1.2300000000000E+00  1.0384870026600E+00  3.9301650003453E-01
125  1.2400000000000E+00  1.0507831096552E+00  3.7257851620879E-01
126  1.2500000000000E+00  1.0617497897182E+00  3.5344521261128E-01
127  1.2600000000000E+00  1.0712094705396E+00  3.3588200172390E-01