In    ONCVPSP-4.0.1  r_core=   1.60227   1.60227   1.70104   1.80591
49.0000     21.0000      220201    zatom,zion,pspd
8      11   3     4   600     0    pspcod,pspxc,lmax,lloc,mmax,r2well
5.99000000  5.00000000  0.00000000    rchrg fchrg qchrg
2     2     2     2     0    nproj
1     1           extension_switch
0                         8.4065213522555E+00 -5.3189608253864E-01
1  0.0000000000000E+00 -3.2930602689163E-10 -9.5752474005284E-10
2  1.0000000000000E-02  9.1272588455862E-02  9.4460514852889E-03
3  2.0000000000000E-02  1.8226879560702E-01  1.8854793272982E-02
4  3.0000000000000E-02  2.7271342526969E-01  2.8189790614747E-02
5  4.0000000000000E-02  3.6233364361491E-01  3.7416343743443E-02
6  5.0000000000000E-02  4.5086014071362E-01  4.6502318320093E-02
7  6.0000000000000E-02  5.3802826876077E-01  5.5418932123528E-02
8  7.0000000000000E-02  6.2357914959756E-01  6.4141484542850E-02
9  8.0000000000000E-02  7.0726074447998E-01  7.2650016390386E-02
10  9.0000000000000E-02  7.8882887944486E-01  8.0929888719335E-02
11  1.0000000000000E-01  8.6804822009447E-01  8.8972270686265E-02
12  1.1000000000000E-01  9.4469319015242E-01  9.6774528021496E-02
13  1.2000000000000E-01  1.0185488287277E+00  1.0434050533434E-01
14  1.3000000000000E-01  1.0894115818533E+00  1.1168069725772E-01
15  1.4000000000000E-01  1.1570900245325E+00  1.1881230529762E-01
16  1.5000000000000E-01  1.2214055102161E+00  1.2575917916625E-01
17  1.6000000000000E-01  1.2821927453479E+00  1.3255164331128E-01
18  1.7000000000000E-01  1.3393002873277E+00  1.3922621127467E-01
19  1.8000000000000E-01  1.3925909649606E+00  1.4582519239125E-01
20  1.9000000000000E-01  1.4419422211619E+00  1.5239619713715E-01
21  2.0000000000000E-01  1.4872463783671E+00  1.5899154913158E-01
22  2.1000000000000E-01  1.5284108277511E+00  1.6566761335350E-01
23  2.2000000000000E-01  1.5653581439696E+00  1.7248405153048E-01
24  2.3000000000000E-01  1.5980261277036E+00  1.7950301686765E-01
25  2.4000000000000E-01  1.6263677788007E+00  1.8678830128840E-01
26  2.5000000000000E-01  1.6503512032608E+00  1.9440444913938E-01
27  2.6000000000000E-01  1.6699594577036E+00  2.0241585185513E-01
28  2.7000000000000E-01  1.6851903352811E+00  2.1088583837502E-01
29  2.8000000000000E-01  1.6960560972460E+00  2.1987577614973E-01
30  2.9000000000000E-01  1.7025831545737E+00  2.2944419736620E-01
31  3.0000000000000E-01  1.7048117041414E+00  2.3964596456211E-01
32  3.1000000000000E-01  1.7027953240091E+00  2.5053148909987E-01
33  3.2000000000000E-01  1.6966005323152E+00  2.6214601503887E-01
34  3.3000000000000E-01  1.6863063142083E+00  2.7452897979764E-01
35  3.4000000000000E-01  1.6720036210754E+00  2.8771346165466E-01
36  3.5000000000000E-01  1.6537948461212E+00  3.0172572261980E-01
37  3.6000000000000E-01  1.6317932800871E+00  3.1658485354452E-01
38  3.7000000000000E-01  1.6061225505975E+00  3.3230252655531E-01
39  3.8000000000000E-01  1.5769160482839E+00  3.4888285802251E-01
40  3.9000000000000E-01  1.5443163424675E+00  3.6632238334766E-01
41  4.0000000000000E-01  1.5084745888048E+00  3.8461014290057E-01
42  4.1000000000000E-01  1.4695499309009E+00  4.0372787649508E-01
43  4.2000000000000E-01  1.4277088975086E+00  4.2365032189556E-01
44  4.3000000000000E-01  1.3831247965413E+00  4.4434561102642E-01
45  4.4000000000000E-01  1.3359771067624E+00  4.6577575584688E-01
46  4.5000000000000E-01  1.2864508676688E+00  4.8789721428385E-01
47  4.6000000000000E-01  1.2347360677754E+00  5.1066152521419E-01
48  4.7000000000000E-01  1.1810270312337E+00  5.3401600028030E-01
49  4.8000000000000E-01  1.1255218024922E+00  5.5790445933160E-01
50  4.9000000000000E-01  1.0684215285269E+00  5.8226799552727E-01
51  5.0000000000000E-01  1.0099298380491E+00  6.0704575562883E-01
52  5.1000000000000E-01  9.5025221703166E-01  6.3217572076345E-01
53  5.2000000000000E-01  8.8959537988770E-01  6.5759547295698E-01
54  5.3000000000000E-01  8.2816663569068E-01  6.8324293302252E-01
55  5.4000000000000E-01  7.6617324893616E-01  7.0905705593959E-01
56  5.5000000000000E-01  7.0382179451671E-01  7.3497847066626E-01
57  5.6000000000000E-01  6.4131750680548E-01  7.6095005237721E-01
58  5.7000000000000E-01  5.7886362301928E-01  7.8691741639882E-01
59  5.8000000000000E-01  5.1666072135183E-01  8.1282932459758E-01
60  5.9000000000000E-01  4.5490605472702E-01  8.3863799664487E-01
61  6.0000000000000E-01  3.9379288141200E-01  8.6429932040194E-01
62  6.1000000000000E-01  3.3350979414474E-01  8.8977295761314E-01
63  6.2000000000000E-01  2.7424004985967E-01  9.1502234312853E-01
64  6.3000000000000E-01  2.1616090253009E-01  9.4001457796462E-01
65  6.4000000000000E-01  1.5944294207831E-01  9.6472021861710E-01
66  6.5000000000000E-01  1.0424944272245E-01  9.8911296712369E-01
67  6.6000000000000E-01  5.0735724525103E-02  1.0131692684032E+00
68  6.7000000000000E-01 -9.5146772810565E-04  1.0368678233292E+00
69  6.8000000000000E-01 -5.0674563869677E-02  1.0601890277994E+00
70  6.9000000000000E-01 -9.8305741189520E-02  1.0831143496995E+00
71  7.0000000000000E-01 -1.4372746583715E-01  1.1056256571052E+00
72  7.1000000000000E-01 -1.8683299770370E-01  1.1277045122798E+00
73  7.2000000000000E-01 -2.2752685362414E-01  1.1493314470015E+00
74  7.3000000000000E-01 -2.6572522374075E-01  1.1704852354457E+00
75  7.4000000000000E-01 -3.0135633594955E-01  1.1911421812686E+00
76  7.5000000000000E-01 -3.3436076351603E-01  1.2112754356468E+00
77  7.6000000000000E-01 -3.6469167119502E-01  1.2308543628409E+00
78  7.7000000000000E-01 -3.9231499552303E-01  1.2498439693547E+00
79  7.8000000000000E-01 -4.1720955536679E-01  1.2682044119578E+00
80  7.9000000000000E-01 -4.3936708930752E-01  1.2858905987521E+00
81  8.0000000000000E-01 -4.5879221701062E-01  1.3028518960839E+00
82  8.1000000000000E-01 -4.7550232237057E-01  1.3190319524741E+00
83  8.2000000000000E-01 -4.8952735692206E-01  1.3343686488672E+00
84  8.3000000000000E-01 -5.0090956276383E-01  1.3487941824232E+00
85  8.4000000000000E-01 -5.0970311504092E-01  1.3622352888238E+00
86  8.5000000000000E-01 -5.1597368486339E-01  1.3746136056724E+00
87  8.6000000000000E-01 -5.1979792439490E-01  1.3858461770738E+00
88  8.7000000000000E-01 -5.2126287670919E-01  1.3958460969307E+00
89  8.8000000000000E-01 -5.2046531387548E-01  1.4045232859218E+00
90  8.9000000000000E-01 -5.1751100758172E-01  1.4117853945907E+00
91  9.0000000000000E-01 -5.1251393742494E-01  1.4175388225023E+00
92  9.1000000000000E-01 -5.0559544277773E-01  1.4216898410721E+00
93  9.2000000000000E-01 -4.9688332486745E-01  1.4241458054768E+00
94  9.3000000000000E-01 -4.8651090636777E-01  1.4248164390560E+00
95  9.4000000000000E-01 -4.7461605639018E-01  1.4236151718521E+00
96  9.5000000000000E-01 -4.6134018926556E-01  1.4204605134430E+00
97  9.6000000000000E-01 -4.4682724591417E-01  1.4152774390252E+00
98  9.7000000000000E-01 -4.3122266690931E-01  1.4079987668406E+00
99  9.8000000000000E-01 -4.1467236653784E-01  1.3985665045143E+00
100  9.9000000000000E-01 -3.9732171724644E-01  1.3869331417118E+00
101  1.0000000000000E+00 -3.7931455383214E-01  1.3730628667324E+00
102  1.0100000000000E+00 -3.6079220658774E-01  1.3569326852377E+00
103  1.0200000000000E+00 -3.4189257234802E-01  1.3385334202702E+00
104  1.0300000000000E+00 -3.2274923200304E-01  1.3178705740316E+00
105  1.0400000000000E+00 -3.0349062255399E-01  1.2949650335531E+00
106  1.0500000000000E+00 -2.8423927119078E-01  1.2698536043794E+00
107  1.0600000000000E+00 -2.6511109817632E-01  1.2425893586760E+00
108  1.0700000000000E+00 -2.4621479453795E-01  1.2132417867207E+00
109  1.0800000000000E+00 -2.2765127970299E-01  1.1818967435292E+00
110  1.0900000000000E+00 -2.0951324328454E-01  1.1486561853303E+00
111  1.1000000000000E+00 -1.9188477423525E-01  1.1136376937317E+00
112  1.1100000000000E+00 -1.7484107955996E-01  1.0769737886165E+00
113  1.1200000000000E+00 -1.5844829371902E-01  1.0388110340833E+00
114  1.1300000000000E+00 -1.4276337878695E-01  9.9930894497668E-01
115  1.1400000000000E+00 -1.2783411436064E-01  9.5863870476445E-01
116  1.1500000000000E+00 -1.1369917516303E-01  9.1698170858635E-01
117  1.1600000000000E+00 -1.0038829326656E-01  8.7452794823250E-01
118  1.1700000000000E+00 -8.7922500890510E-02  8.3147425851107E-01
119  1.1800000000000E+00 -7.6314448810287E-02  7.8802244693157E-01
120  1.1900000000000E+00 -6.5568794580389E-02  7.4437733077650E-01
121  1.2000000000000E+00 -5.5682654013675E-02  7.0074470746553E-01
122  1.2100000000000E+00 -4.6646108702783E-02  6.5732928555936E-01
123  1.2200000000000E+00 -3.8442761811971E-02  6.1433260480875E-01
124  1.2300000000000E+00 -3.1050333924637E-02  5.7195097428628E-01
125  1.2400000000000E+00 -2.4441290406508E-02  5.3037345783950E-01
126  1.2500000000000E+00 -1.8583491539660E-02  4.8977993585986E-01
127  1.2600000000000E+00 -1.3440856603520E-02  4.5033927167569E-01
128  1.2700000000000E+00 -8.9740331227097E-03  4.1220760975380E-01
129  1.2800000000000E+00 -5.1410626695424E-03  3.7552683133783E-01
130  1.2900000000000E+00 -1.8980348945508E-03  3.4042319119990E-01
131  1.3000000000000E+00  8.0027814176855E-04  3.0700615684415E-01
132  1.3100000000000E+00  2.9998147551496E-03  2.7536746881179E-01
133  1.3200000000000E+00  4.7466503567922E-03  2.4558043774669E-01
134  1.3300000000000E+00  6.0864642304510E-03  2.1769949062948E-01
135  1.3400000000000E+00  7.0640517208937E-03  1.9175997509816E-01
136  1.3500000000000E+00  7.7228863577236E-03  1.6777822714104E-01
137  1.3600000000000E+00  8.1047355578552E-03  1.4575190369746E-01
138  1.3700000000000E+00  8.2493326333324E-03  1.2566057789618E-01
139  1.3800000000000E+00  8.1941068933870E-03  1.0746659085723E-01
140  1.3900000000000E+00  7.9739726891825E-03  9.1116150254205E-02
141  1.4000000000000E+00  7.6211773163160E-03  7.6540662215699E-02
142  1.4100000000000E+00  7.1652067853139E-03  6.3658279719237E-02
143  1.4200000000000E+00  6.6327475977231E-03  5.2375647413125E-02
144  1.4300000000000E+00  6.0477018529671E-03  4.2589819894992E-02
145  1.4400000000000E+00  5.4312522593903E-03  3.4190327880938E-02
146  1.4500000000000E+00  4.8019729485197E-03  2.7061364478788E-02
147  1.4600000000000E+00  4.1759814071008E-03  2.1084061972844E-02
148  1.4700000000000E+00  3.5671263472846E-03  1.6138828143006E-02
149  1.4800000000000E+00  2.9872060476168E-03  1.2107710678689E-02
150  1.4900000000000E+00  2.4462109866307E-03  8.8767558233662E-03
151  1.5000000000000E+00  1.9525842521823E-03  6.3383268294133E-03
152  1.5100000000000E+00  1.5134227107429E-03  4.3930268008874E-03
153  1.5200000000000E+00  1.1338861234497E-03  2.9479458022666E-03
154  1.5300000000000E+00  8.1426408500496E-04  1.9046632616096E-03
155  1.5400000000000E+00  5.5133782571940E-04  1.1654143670361E-03
156  1.5500000000000E+00  3.4559290026616E-04  6.6577354781546E-04
157  1.5600000000000E+00  1.9457424841447E-04  3.4737512039532E-04
158  1.5700000000000E+00  9.3196247486101E-05  1.5941933064672E-04
159  1.5800000000000E+00  3.3902488809404E-05  5.9501665431280E-05
160  1.5900000000000E+00  6.8539135657462E-06  1.4252467028855E-05
161  1.6000000000000E+00  1.7226799868265E-07  6.9462022466767E-07
162  1.6100000000000E+00 -1.5244909081283E-08 -1.2255079051868E-07
163  1.6200000000000E+00  1.2800534209520E-08  4.2355022102380E-08
164  1.63 -0. -0.
165  1.64 -0. -0.
166  1.65  0.  0.
167  1.66  0.  0.
168  1.67  0.  0.
169  1.68  0.  0.
170  1.69  0.  0.
171  1.70  0.  0.
172  1.71  0.  0.
173  1.72  0.  0.
174  1.73  0.  0.
175  1.74  0.  0.
176  1.75  0.  0.
177  1.76  0.  0.
178  1.77  0.  0.
179  1.78  0.  0.
180  1.79  0.  0.
181  1.80  0.  0.
182  1.81  0.  0.
183  1.82  0.  0.
184  1.83  0.  0.
185  1.84  0.  0.
186  1.85  0.  0.
187  1.86  0.  0.
188  1.87  0.  0.
189  1.88  0.  0.
190  1.89  0.  0.
191  1.90  0.  0.
192  1.91  0.  0.
193  1.92  0.  0.
194  1.93  0.  0.
195  1.94  0.  0.
196  1.95  0.  0.
197  1.96  0.  0.
198  1.97  0.  0.
199  1.98  0.  0.
200  1.99  0.  0.
201  2.00  0.  0.
202  2.01  0.  0.
203  2.02  0.  0.
204  2.03  0.  0.
205  2.04  0.  0.
206  2.05  0.  0.
207  2.06  0.  0.
208  2.07  0.  0.
209  2.08  0.  0.
210  2.09  0.  0.
211  2.10  0.  0.
212  2.11  0.  0.
213  2.12  0.  0.
214  2.13  0.  0.
215  2.14  0.  0.
216  2.15  0.  0.
217  2.16  0.  0.
218  2.17  0.  0.
219  2.18  0.  0.
220  2.19  0.  0.
221  2.20  0.  0.
222  2.21  0.  0.
223  2.22  0.  0.
224  2.23  0.  0.
225  2.24  0.  0.
226  2.25  0.  0.
227  2.26  0.  0.
228  2.27  0.  0.
229  2.28  0.  0.
230  2.29  0.  0.
231  2.30  0.  0.
232  2.31  0.  0.
233  2.32  0.  0.
234  2.33  0.  0.
235  2.34  0.  0.
236  2.35  0.  0.
237  2.36  0.  0.
238  2.37  0.  0.
239  2.38  0.  0.
240  2.39  0.  0.
241  2.40  0.  0.
242  2.41  0.  0.
243  2.42  0.  0.
244  2.43  0.  0.
245  2.44  0.  0.
246  2.45  0.  0.
247  2.46  0.  0.
248  2.47  0.  0.
249  2.48  0.  0.
250  2.49  0.  0.
251  2.50  0.  0.
252  2.51  0.  0.
253  2.52  0.  0.
254  2.53  0.  0.
255  2.54  0.  0.
256  2.55  0.  0.
257  2.56  0.  0.
258  2.57  0.  0.
259  2.58  0.  0.
260  2.59  0.  0.
261  2.60  0.  0.
262  2.61  0.  0.
263  2.62  0.  0.
264  2.63  0.  0.
265  2.64  0.  0.
266  2.65  0.  0.
267  2.66  0.  0.
268  2.67  0.  0.
269  2.68  0.  0.
270  2.69  0.  0.
271  2.70  0.  0.
272  2.71  0.  0.
273  2.72  0.  0.
274  2.73  0.  0.
275  2.74  0.  0.
276  2.75  0.  0.
277  2.76  0.  0.
278  2.77  0.  0.
279  2.78  0.  0.
280  2.79  0.  0.
281  2.80  0.  0.
282  2.81  0.  0.
283  2.82  0.  0.
284  2.83  0.  0.
285  2.84  0.  0.
286  2.85  0.  0.
287  2.86  0.  0.
288  2.87  0.  0.
289  2.88  0.  0.
290  2.89  0.  0.
291  2.90  0.  0.
292  2.91  0.  0.
293  2.92  0.  0.
294  2.93  0.  0.
295  2.94  0.  0.
296  2.95  0.  0.
297  2.96  0.  0.
298  2.97  0.  0.
299  2.98  0.  0.
300  2.99  0.  0.
301  3.00  0.  0.
302  3.01  0.  0.
303  3.02  0.  0.
304  3.03  0.  0.
305  3.04  0.  0.
306  3.05  0.  0.
307  3.06  0.  0.
308  3.07  0.  0.
309  3.08  0.  0.
310  3.09  0.  0.
311  3.10  0.  0.
312  3.11  0.  0.
313  3.12  0.  0.
314  3.13  0.  0.
315  3.14  0.  0.
316  3.15  0.  0.
317  3.16  0.  0.
318  3.17  0.  0.
319  3.18  0.  0.
320  3.19  0.  0.
321  3.20  0.  0.
322  3.21  0.  0.
323  3.22  0.  0.
324  3.23  0.  0.
325  3.24  0.  0.
326  3.25  0.  0.
327  3.26  0.  0.
328  3.27  0.  0.
329  3.28  0.  0.
330  3.29  0.  0.
331  3.30  0.  0.
332  3.31  0.  0.
333  3.32  0.  0.
334  3.33  0.  0.
335  3.34  0.  0.
336  3.35  0.  0.
337  3.36  0.  0.
338  3.37  0.  0.
339  3.38  0.  0.
340  3.39  0.  0.
341  3.40  0.  0.
342  3.41  0.  0.
343  3.42  0.  0.
344  3.43  0.  0.
345  3.44  0.  0.
346  3.45  0.  0.
347  3.46  0.  0.
348  3.47  0.  0.
349  3.48  0.  0.
350  3.49  0.  0.
351  3.50  0.  0.
352  3.51  0.  0.
353  3.52  0.  0.
354  3.53  0.  0.
355  3.54  0.  0.
356  3.55  0.  0.
357  3.56  0.  0.
358  3.57  0.  0.
359  3.58  0.  0.
360  3.59  0.  0.
361  3.60  0.  0.
362  3.61  0.  0.
363  3.62  0.  0.
364  3.63  0.  0.
365  3.64  0.  0.
366  3.65  0.  0.
367  3.66  0.  0.
368  3.67  0.  0.
369  3.68  0.  0.
370  3.69  0.  0.
371  3.70  0.  0.
372  3.71  0.  0.
373  3.72  0.  0.
374  3.73  0.  0.
375  3.74  0.  0.
376  3.75  0.  0.
377  3.76  0.  0.
378  3.77  0.  0.
379  3.78  0.  0.
380  3.79  0.  0.
381  3.80  0.  0.
382  3.81  0.  0.
383  3.82  0.  0.
384  3.83  0.  0.
385  3.84  0.  0.
386  3.85  0.  0.
387  3.86  0.  0.
388  3.87  0.  0.
389  3.88  0.  0.
390  3.89  0.  0.
391  3.90  0.  0.
392  3.91  0.  0.
393  3.92  0.  0.
394  3.93  0.  0.
395  3.94  0.  0.
396  3.95  0.  0.
397  3.96  0.  0.
398  3.97  0.  0.
399  3.98  0.  0.
400  3.99  0.  0.
401  4.00  0.  0.
402  4.01  0.  0.
403  4.02  0.  0.
404  4.03  0.  0.
405  4.04  0.  0.
406  4.05  0.  0.
407  4.06  0.  0.
408  4.07  0.  0.
409  4.08  0.  0.
410  4.09  0.  0.
411  4.10  0.  0.
412  4.11  0.  0.
413  4.12  0.  0.
414  4.13  0.  0.
415  4.14  0.  0.
416  4.15  0.  0.
417  4.16  0.  0.
418  4.17  0.  0.
419  4.18  0.  0.
420  4.19  0.  0.
421  4.20  0.  0.
422  4.21  0.  0.
423  4.22  0.  0.
424  4.23  0.  0.
425  4.24  0.  0.
426  4.25  0.  0.
427  4.26  0.  0.
428  4.27  0.  0.
429  4.28  0.  0.
430  4.29  0.  0.
431  4.30  0.  0.
432  4.31  0.  0.
433  4.32  0.  0.
434  4.33  0.  0.
435  4.34  0.  0.
436  4.35  0.  0.
437  4.36  0.  0.
438  4.37  0.  0.
439  4.38  0.  0.
440  4.39  0.  0.
441  4.40  0.  0.
442  4.41  0.  0.
443  4.42  0.  0.
444  4.43  0.  0.
445  4.44  0.  0.
446  4.45  0.  0.
447  4.46  0.  0.
448  4.47  0.  0.
449  4.48  0.  0.
450  4.49  0.  0.
451  4.50  0.  0.
452  4.51  0.  0.
453  4.52  0.  0.
454  4.53  0.  0.
455  4.54  0.  0.
456  4.55  0.  0.
457  4.56  0.  0.
458  4.57  0.  0.
459  4.58  0.  0.
460  4.59  0.  0.
461  4.60  0.  0.
462  4.61  0.  0.
463  4.62  0.  0.
464  4.63  0.  0.
465  4.64  0.  0.
466  4.65  0.  0.
467  4.66  0.  0.
468  4.67  0.  0.
469  4.68  0.  0.
470  4.69  0.  0.
471  4.70  0.  0.
472  4.71  0.  0.
473  4.72  0.  0.
474  4.73  0.  0.
475  4.74  0.  0.
476  4.75  0.  0.
477  4.76  0.  0.
478  4.77  0.  0.
479  4.78  0.  0.
480  4.79  0.  0.
481  4.80  0.  0.
482  4.81  0.  0.
483  4.82  0.  0.
484  4.83  0.  0.
485  4.84  0.  0.
486  4.85  0.  0.
487  4.86  0.  0.
488  4.87  0.  0.
489  4.88  0.  0.
490  4.89  0.  0.
491  4.90  0.  0.
492  4.91  0.  0.
493  4.92  0.  0.
494  4.93  0.  0.
495  4.94  0.  0.
496  4.95  0.  0.
497  4.96  0.  0.
498  4.97  0.  0.
499  4.98  0.  0.
500  4.99  0.  0.
501  5.00  0.  0.
502  5.01  0.  0.
503  5.02  0.  0.
504  5.03  0.  0.
505  5.04  0.  0.
506  5.05  0.  0.
507  5.06  0.  0.
508  5.07  0.  0.
509  5.08  0.  0.
510  5.09  0.  0.
511  5.10  0.  0.
512  5.11  0.  0.
513  5.12  0.  0.
514  5.13  0.  0.
515  5.14  0.  0.
516  5.15  0.  0.
517  5.16  0.  0.
518  5.17  0.  0.
519  5.18  0.  0.
520  5.19  0.  0.
521  5.20  0.  0.
522  5.21  0.  0.
523  5.22  0.  0.
524  5.23  0.  0.
525  5.24  0.  0.
526  5.25  0.  0.
527  5.26  0.  0.
528  5.27  0.  0.
529  5.28  0.  0.
530  5.29  0.  0.
531  5.30  0.  0.
532  5.31  0.  0.
533  5.32  0.  0.
534  5.33  0.  0.
535  5.34  0.  0.
536  5.35  0.  0.
537  5.36  0.  0.
538  5.37  0.  0.
539  5.38  0.  0.
540  5.39  0.  0.
541  5.40  0.  0.
542  5.41  0.  0.
543  5.42  0.  0.
544  5.43  0.  0.
545  5.44  0.  0.
546  5.45  0.  0.
547  5.46  0.  0.
548  5.47  0.  0.
549  5.48  0.  0.
550  5.49  0.  0.
551  5.50  0.  0.
552  5.51  0.  0.
553  5.52  0.  0.
554  5.53  0.  0.
555  5.54  0.  0.
556  5.55  0.  0.
557  5.56  0.  0.
558  5.57  0.  0.
559  5.58  0.  0.
560  5.59  0.  0.
561  5.60  0.  0.
562  5.61  0.  0.
563  5.62  0.  0.
564  5.63  0.  0.
565  5.64  0.  0.
566  5.65  0.  0.
567  5.66  0.  0.
568  5.67  0.  0.
569  5.68  0.  0.
570  5.69  0.  0.
571  5.70  0.  0.
572  5.71  0.  0.
573  5.72  0.  0.
574  5.73  0.  0.
575  5.74  0.  0.
576  5.75  0.  0.
577  5.76  0.  0.
578  5.77  0.  0.
579  5.78  0.  0.
580  5.79  0.  0.
581  5.80  0.  0.
582  5.81  0.  0.
583  5.82  0.  0.
584  5.83  0.  0.
585  5.84  0.  0.
586  5.85  0.  0.
587  5.86  0.  0.
588  5.87  0.  0.
589  5.88  0.  0.
590  5.89  0.  0.
591  5.90  0.  0.
592  5.91  0.  0.
593  5.92  0.  0.
594  5.93  0.  0.
595  5.94  0.  0.
596  5.95  0.  0.
597  5.96  0.  0.
598  5.97  0.  0.
599  5.98  0.  0.
600  5.99  0.  0.
1                         2.2238812870049E+00 -1.1024036932230E+00
1  0.0000000000000E+00  6.7499972555840E-09 -2.7407559555215E-10
2  1.0000000000000E-02  2.6132738017768E-03  2.7141064442975E-04
3  2.0000000000000E-02  1.0431948023368E-02  1.0870875756727E-03
4  3.0000000000000E-02  2.3392827277889E-02  2.4513484424179E-03
5  4.0000000000000E-02  4.1391402537622E-02  4.3713316525380E-03
6  5.0000000000000E-02  6.4283062374553E-02  6.8569103664056E-03
7  6.0000000000000E-02  9.1884761580792E-02  9.9205730907142E-03
8  7.0000000000000E-02  1.2397712064237E-01  1.3577271868863E-02
9  8.0000000000000E-02  1.6030692278991E-01  1.7844239338039E-02
10  9.0000000000000E-02  2.0058996920084E-01  2.2740776189430E-02
11  1.0000000000000E-01  2.4451424749045E-01  2.8288010824653E-02
12  1.1000000000000E-01  2.9174336399956E-01  3.4508633246684E-02
13  1.2000000000000E-01  3.4192018664730E-01  4.1426605455270E-02
14  1.3000000000000E-01  3.9467064233486E-01  4.9066850833522E-02
15  1.4000000000000E-01  4.4960761110585E-01  5.7454925211805E-02
16  1.5000000000000E-01  5.0633485852218E-01  6.6616672475653E-02
17  1.6000000000000E-01  5.6445094800957E-01  7.6577867744134E-02
18  1.7000000000000E-01  6.2355307625501E-01  8.7363851282287E-02
19  1.8000000000000E-01  6.8324077707058E-01  9.8999156424007E-02
20  1.9000000000000E-01  7.4311944242640E-01  1.1150713486853E-01
21  2.0000000000000E-01  8.0280361353550E-01  1.2490958277309E-01
22  2.1000000000000E-01  8.6191999986187E-01  1.3922637109447E-01
23  2.2000000000000E-01  9.2011018962408E-01  1.5447508363288E-01
24  2.3000000000000E-01  9.7703302166998E-01  1.7067066620046E-01
25  2.4000000000000E-01  1.0323665953812E+00  1.8782509027467E-01
26  2.5000000000000E-01  1.0858099024003E+00  2.0594703440194E-01
27  2.6000000000000E-01  1.1370840713203E+00  2.2504158649027E-01
28  2.7000000000000E-01  1.1859332238967E+00  2.4510996997029E-01
29  2.8000000000000E-01  1.2321249486931E+00  2.6614929661416E-01
30  2.9000000000000E-01  1.2754504052137E+00  2.8815234858050E-01
31  3.0000000000000E-01  1.3157240783702E+00  3.1110739200386E-01
32  3.1000000000000E-01  1.3527832094558E+00  3.3499802416960E-01
33  3.2000000000000E-01  1.3864869355182E+00  3.5980305601292E-01
34  3.3000000000000E-01  1.4167151740500E+00  3.8549643135556E-01
35  3.4000000000000E-01  1.4433672941339E+00  4.1204718394961E-01
36  3.5000000000000E-01  1.4663606185186E+00  4.3941943303663E-01
37  3.6000000000000E-01  1.4856288035068E+00  4.6757241775799E-01
38  3.7000000000000E-01  1.5011201449408E+00  4.9646057037021E-01
39  3.8000000000000E-01  1.5127958589749E+00  5.2603362783376E-01
40  3.9000000000000E-01  1.5206283857010E+00  5.5623678095851E-01
41  4.0000000000000E-01  1.5245997620691E+00  5.8701085990880E-01
42  4.1000000000000E-01  1.5247001079468E+00  6.1829255450048E-01
43  4.2000000000000E-01  1.5209262656475E+00  6.5001466736667E-01
44  4.3000000000000E-01  1.5132806288884E+00  6.8210639773216E-01
45  4.4000000000000E-01  1.5017701920207E+00  7.1449365322389E-01
46  4.5000000000000E-01  1.4864058445828E+00  7.4709938686070E-01
47  4.6000000000000E-01  1.4672019299067E+00  7.7984395611354E-01
48  4.7000000000000E-01  1.4441760797635E+00  8.1264550071230E-01
49  4.8000000000000E-01  1.4173493300123E+00  8.4542033569945E-01
50  4.9000000000000E-01  1.3867465150581E+00  8.7808335609779E-01
51  5.0000000000000E-01  1.3523969317714E+00  9.1054844947171E-01
52  5.1000000000000E-01  1.3143352565244E+00  9.4272891261995E-01
53  5.2000000000000E-01  1.2726026922961E+00  9.7453786864482E-01
54  5.3000000000000E-01  1.2272483165336E+00  1.0058886806975E+00
55  5.4000000000000E-01  1.1783305947596E+00  1.0366953588025E+00
56  5.5000000000000E-01  1.1259190199023E+00  1.0668729563135E+00
57  5.6000000000000E-01  1.0700958331147E+00  1.0963379527494E+00
58  5.7000000000000E-01  1.0109577785230E+00  1.1250086199948E+00
59  5.8000000000000E-01  9.4861784198746E-01  1.1528053691291E+00
60  5.9000000000000E-01  8.8320692262778E-01  1.1796510754585E+00
61  6.0000000000000E-01  8.1487538559574E-01  1.2054713796704E+00
62  6.1000000000000E-01  7.4379444539347E-01  1.2301949633986E+00
63  6.2000000000000E-01  6.7015733092913E-01  1.2537537978757E+00
64  6.3000000000000E-01  5.9418018645305E-01  1.2760833647558E+00
65  6.4000000000000E-01  5.1610266647894E-01  1.2971228485976E+00
66  6.5000000000000E-01  4.3618818770542E-01  1.3168153009143E+00
67  6.6000000000000E-01  3.5472380672455E-01  1.3351077760988E+00
68  6.7000000000000E-01  2.7201969884110E-01  1.3519514399310E+00
69  6.8000000000000E-01  1.8840822050535E-01  1.3673016517436E+00
70  6.9000000000000E-01  1.0424254555828E-01  1.3811180216765E+00
71  7.0000000000000E-01  1.9894873554716E-02  1.3933644447627E+00
72  7.1000000000000E-01 -6.4245783280367E-02  1.4040091138706E+00
73  7.2000000000000E-01 -1.4777621955374E-01  1.4130245137626E+00
74  7.3000000000000E-01 -2.3028203949543E-01  1.4203873987212E+00
75  7.4000000000000E-01 -3.1134101186682E-01  1.4260787563308E+00
76  7.5000000000000E-01 -3.9052673821747E-01  1.4300837600887E+00
77  7.6000000000000E-01 -4.6741258869003E-01  1.4323917135494E+00
78  7.7000000000000E-01 -5.4157585324187E-01  1.4329959886764E+00
79  7.8000000000000E-01 -6.1260205065392E-01  1.4318939609940E+00
80  7.9000000000000E-01 -6.8008933314611E-01  1.4290869439904E+00
81  8.0000000000000E-01 -7.4365292091483E-01  1.4245801250297E+00
82  8.1000000000000E-01 -8.0292949852909E-01  1.4183825047877E+00
83  8.2000000000000E-01 -8.5758150393061E-01  1.4105068419355E+00
84  8.3000000000000E-01 -9.0730124081473E-01  1.4009696044619E+00
85  8.4000000000000E-01 -9.5181474644204E-01  1.3897909286617E+00
86  8.5000000000000E-01 -9.9088534943453E-01  1.3769945864167E+00
87  8.6000000000000E-01 -1.0243168558185E+00  1.3626079609823E+00
88  8.7000000000000E-01 -1.0519563064317E+00  1.3466620310604E+00
89  8.8000000000000E-01 -1.0736962547456E+00  1.3291913625029E+00
90  8.9000000000000E-01 -1.0894765210607E+00  1.3102341065585E+00
91  9.0000000000000E-01 -1.0992853868121E+00  1.2898320031560E+00
92  9.1000000000000E-01 -1.1031602012292E+00  1.2680303873180E+00
93  9.2000000000000E-01 -1.1011873816902E+00  1.2448781964313E+00
94  9.3000000000000E-01 -1.0935017986395E+00  1.2204279757697E+00
95  9.4000000000000E-01 -1.0802855457260E+00  1.1947358793826E+00
96  9.5000000000000E-01 -1.0617661056988E+00  1.1678616632303E+00
97  9.6000000000000E-01 -1.0382139323906E+00  1.1398686672795E+00
98  9.7000000000000E-01 -1.0099394786500E+00  1.1108237831666E+00
99  9.8000000000000E-01 -9.7728970918471E-01  1.0807974040022E+00
100  9.9000000000000E-01 -9.4064414577446E-01  1.0498633529280E+00
101  1.0000000000000E+00 -9.0041050006107E-01  1.0180987871561E+00
102  1.0100000000000E+00 -8.5701995597251E-01  9.8558407440415E-01
103  1.0200000000000E+00 -8.1092216966988E-01  9.5240263891446E-01
104  1.0300000000000E+00 -7.6258005960219E-01  9.1864077457939E-01
105  1.0400000000000E+00 -7.1246446273759E-01  8.8438742310856E-01
106  1.0500000000000E+00 -6.6104873523597E-01  8.4973391564985E-01
107  1.0600000000000E+00 -6.0880337669657E-01  8.1477367681102E-01
108  1.0700000000000E+00 -5.5619075663973E-01  7.7960189061763E-01
109  1.0800000000000E+00 -5.0366002006115E-01  7.4431512857514E-01
110  1.0900000000000E+00 -4.5164224577684E-01  7.0901094066824E-01
111  1.1000000000000E+00 -4.0054592688203E-01  6.7378741082239E-01
112  1.1100000000000E+00 -3.5075283710114E-01  6.3874267905341E-01
113  1.1200000000000E+00 -3.0261434014499E-01  6.0397443323691E-01
114  1.1300000000000E+00 -2.5644819160948E-01  5.6957937412023E-01
115  1.1400000000000E+00 -2.1253587450072E-01  5.3565265787064E-01
116  1.1500000000000E+00 -1.7112050039621E-01  5.0228732108559E-01
117  1.1600000000000E+00 -1.3240529861495E-01  4.6957369377843E-01
118  1.1700000000000E+00 -9.6552705861715E-02  4.3759880637783E-01
119  1.1800000000000E+00 -6.3684058666804E-02  4.0644579723728E-01
120  1.1900000000000E+00 -3.3879880924091E-02  3.7619332752527E-01
121  1.2000000000000E+00 -7.1807489093785E-03  3.4691501065460E-01
122  1.2100000000000E+00  1.6411293270097E-02  3.1867886359779E-01
123  1.2200000000000E+00  3.6930803798074E-02  2.9154678752132E-01
124  1.2300000000000E+00  5.4446543051736E-02  2.6557408514810E-01
125  1.2400000000000E+00  6.9058654826213E-02  2.4080902212324E-01
126  1.2500000000000E+00  8.0895486814396E-02  2.1729243940858E-01
127  1.2600000000000E+00  9.0110113514468E-02  1.9505742337053E-01
128  1.2700000000000E+00  9.6876628826025E-02  1.7412903975295E-01
129  1.2800000000000E+00  1.0138627841830E-01  1.5452413714524E-01
130  1.2900000000000E+00  1.0384350347354E-01  1.3625122487534E-01
131  1.3000000000000E+00  1.0446196762570E-01  1.1931042948131E-01
132  1.3100000000000E+00  1.0346063781146E-01  1.0369353305250E-01
133  1.3200000000000E+00  1.0105998737330E-01  8.9384095796618E-02
134  1.3300000000000E+00  9.7478386173121E-02  7.6357664193527E-02
135  1.3400000000000E+00  9.2928737715400E-02  6.4582065045208E-02
136  1.3500000000000E+00  8.7615417506098E-02  5.4017784652466E-02
137  1.3600000000000E+00  8.1731560172970E-02  4.4618431247916E-02
138  1.3700000000000E+00  7.5456735378975E-02  3.6331277709191E-02
139  1.3800000000000E+00  6.8955044419842E-02  2.9097880482161E-02
140  1.3900000000000E+00  6.2373660807749E-02  2.2854769581433E-02
141  1.4000000000000E+00  5.5841829223406E-02  1.7534203513924E-02
142  1.4100000000000E+00  4.9470328213442E-02  1.3064982014444E-02
143  1.4200000000000E+00  4.3351392979860E-02  9.3733085930448E-03
144  1.4300000000000E+00  3.7559085882557E-02  6.3836941020675E-03
145  1.4400000000000E+00  3.2150093895826E-02  4.0198918359688E-03
146  1.4500000000000E+00  2.7164924437840E-02  2.2058540967472E-03
147  1.4600000000000E+00  2.2629463912331E-02  8.6669970294812E-04
148  1.4700000000000E+00  1.8556856991954E-02 -7.0318406546942E-05
149  1.4800000000000E+00  1.4949659952477E-02 -6.7485642984940E-04
150  1.4900000000000E+00  1.1802214643267E-02 -1.0125451755038E-03
151  1.5000000000000E+00  9.1031856677701E-03 -1.1440892622300E-03
152  1.5100000000000E+00  6.8377924007602E-03 -1.1244641570723E-03
153  1.5200000000000E+00  4.9855236633888E-03 -1.0027881952834E-03
154  1.5300000000000E+00  3.5021819828023E-03 -8.2169989296636E-04
155  1.5400000000000E+00  2.3288721465749E-03 -6.1720166107935E-04
156  1.5500000000000E+00  1.4412860749165E-03 -4.1960201207520E-04
157  1.5600000000000E+00  8.0741630312724E-04 -2.5094458459824E-04
158  1.5700000000000E+00  3.8972315186158E-04 -1.2466939824596E-04
159  1.5800000000000E+00  1.4634560302518E-04 -4.5306603768327E-05
160  1.5900000000000E+00  3.2230872020167E-05 -8.3599125991575E-06
161  1.6000000000000E+00  1.1295468577681E-06 -7.6943539681764E-08
162  1.6100000000000E+00 -1.6690753000471E-07 -1.7012391658922E-08
163  1.6200000000000E+00  7.7850094254371E-08 -9.6220008737136E-09
164  1.63 -0.  0.
165  1.64 -0.  0.
166  1.65  0.  0.