In    ONCVPSP-4.0.1  r_core=   2.10981   2.36376   3.00278   2.20003
49.0000      3.0000      220201    zatom,zion,pspd
8      11   3     4   600     0    pspcod,pspxc,lmax,lloc,mmax,r2well
5.99000000  5.00000000  0.00000000    rchrg fchrg qchrg
2     2     2     1     0    nproj
1     1           extension_switch
0                         8.9824224893682E+00  1.4696943425695E+00
1  0.0000000000000E+00  7.6570250140406E-11 -1.2338557953129E-10
2  1.0000000000000E-02  2.3364469893752E-02 -8.0407539517114E-03
3  2.0000000000000E-02  4.6718888646685E-02 -1.6091141359860E-02
4  3.0000000000000E-02  7.0053123994151E-02 -2.4160545475431E-02
5  4.0000000000000E-02  9.3356882992182E-02 -3.2257852094626E-02
6  5.0000000000000E-02  1.1661963557900E-01 -4.0391208190149E-02
7  6.0000000000000E-02  1.3983054276312E-01 -4.8567789284674E-02
8  7.0000000000000E-02  1.6297839088941E-01 -5.6793578334422E-02
9  8.0000000000000E-02  1.8605153335807E-01 -6.5073158767425E-02
10  9.0000000000000E-02  2.0903784107705E-01 -7.3409524169099E-02
11  1.0000000000000E-01  2.3192466281794E-01 -8.1803906928849E-02
12  1.1000000000000E-01  2.5469879651875E-01 -9.0255627957208E-02
13  1.2000000000000E-01  2.7734647243705E-01 -9.8761969355660E-02
14  1.3000000000000E-01  2.9985334890355E-01 -1.0731807167292E-01
15  1.4000000000000E-01  3.2220452126268E-01 -1.1591685711472E-01
16  1.5000000000000E-01  3.4438454441334E-01 -1.2454897979154E-01
17  1.6000000000000E-01  3.6637746918246E-01 -1.3320280379325E-01
18  1.7000000000000E-01  3.8816689257851E-01 -1.4186440957421E-01
19  1.8000000000000E-01  4.0973602178243E-01 -1.5051762882018E-01
20  1.9000000000000E-01  4.3106775154340E-01 -1.5914410765208E-01
21  2.0000000000000E-01  4.5214475445678E-01 -1.6772339770587E-01
22  2.1000000000000E-01  4.7294958341547E-01 -1.7623307431355E-01
23  2.2000000000000E-01  4.9346478534366E-01 -1.8464888070332E-01
24  2.3000000000000E-01  5.1367302514810E-01 -1.9294489683838E-01
25  2.4000000000000E-01  5.3355721865634E-01 -2.0109373122811E-01
26  2.5000000000000E-01  5.5310067315753E-01 -2.0906673377497E-01
27  2.6000000000000E-01  5.7228723401995E-01 -2.1683422746842E-01
28  2.7000000000000E-01  5.9110143573344E-01 -2.2436575650608E-01
29  2.8000000000000E-01  6.0952865561437E-01 -2.3163034821513E-01
30  2.9000000000000E-01  6.2755526831903E-01 -2.3859678596549E-01
31  3.0000000000000E-01  6.4516879923794E-01 -2.4523389011315E-01
32  3.1000000000000E-01  6.6235807479086E-01 -2.5151080388845E-01
33  3.2000000000000E-01  6.7911336761060E-01 -2.5739728105250E-01
34  3.3000000000000E-01  6.9542653459409E-01 -2.6286397208557E-01
35  3.4000000000000E-01  7.1129114581166E-01 -2.6788270564599E-01
36  3.5000000000000E-01  7.2670260230128E-01 -2.7242676204699E-01
37  3.6000000000000E-01  7.4165824083221E-01 -2.7647113554233E-01
38  3.7000000000000E-01  7.5615742380391E-01 -2.7999278228979E-01
39  3.8000000000000E-01  7.7020161254868E-01 -2.8297085097380E-01
40  3.9000000000000E-01  7.8379442243147E-01 -2.8538689321413E-01
41  4.0000000000000E-01  7.9694165828562E-01 -2.8722505106583E-01
42  4.1000000000000E-01  8.0965132888832E-01 -2.8847221912442E-01
43  4.2000000000000E-01  8.2193363936322E-01 -2.8911817898878E-01
44  4.3000000000000E-01  8.3380096059772E-01 -2.8915570409947E-01
45  4.4000000000000E-01  8.4526777497817E-01 -2.8858063326065E-01
46  4.5000000000000E-01  8.5635059797485E-01 -2.8739191146605E-01
47  4.6000000000000E-01  8.6706787534860E-01 -2.8559159698155E-01
48  4.7000000000000E-01  8.7743985600015E-01 -2.8318483398481E-01
49  4.8000000000000E-01  8.8748844073873E-01 -2.8017979042358E-01
50  4.9000000000000E-01  8.9723700750686E-01 -2.7658756112478E-01
51  5.0000000000000E-01  9.0671021385955E-01 -2.7242203656293E-01
52  5.1000000000000E-01  9.1593377775762E-01 -2.6769973807473E-01
53  5.2000000000000E-01  9.2493423799169E-01 -2.6243962068404E-01
54  5.3000000000000E-01  9.3373869580522E-01 -2.5666284507208E-01
55  5.4000000000000E-01  9.4237453952711E-01 -2.5039252059038E-01
56  5.5000000000000E-01  9.5086915425589E-01 -2.4365342156232E-01
57  5.6000000000000E-01  9.5924961885443E-01 -2.3647167945142E-01
58  5.7000000000000E-01  9.6754239271534E-01 -2.2887445378580E-01
59  5.8000000000000E-01  9.7577299493912E-01 -2.2088958501569E-01
60  5.9000000000000E-01  9.8396567872848E-01 -2.1254523274114E-01
61  6.0000000000000E-01  9.9214310394048E-01 -2.0386950297690E-01
62  6.1000000000000E-01  1.0003260108515E+00 -1.9489006831801E-01
63  6.2000000000000E-01  1.0085328982768E+00 -1.8563378503055E-01
64  6.3000000000000E-01  1.0167797092461E+00 -1.7612631121519E-01
65  6.4000000000000E-01  1.0250795274648E+00 -1.6639173027381E-01
66  6.5000000000000E-01  1.0334422877917E+00 -1.5645218395177E-01
67  6.6000000000000E-01  1.0418745039320E+00 -1.4632751922690E-01
68  6.7000000000000E-01  1.0503790164827E+00 -1.3603495327269E-01
69  6.8000000000000E-01  1.0589547643726E+00 -1.2558876063489E-01
70  6.9000000000000E-01  1.0675965826157E+00 -1.1499998662956E-01
71  7.0000000000000E-01  1.0762950291415E+00 -1.0427619079597E-01
72  7.1000000000000E-01  1.0850362432781E+00 -9.3421224021193E-02
73  7.2000000000000E-01  1.0938018382548E+00 -8.2435042695655E-02
74  7.3000000000000E-01  1.1025688298434E+00 -7.1313562962408E-02
75  7.4000000000000E-01  1.1113096029969E+00 -6.0048557789809E-02
76  7.5000000000000E-01  1.1199919180479E+00 -4.8627599229361E-02
77  7.6000000000000E-01  1.1285789577217E+00 -3.7034047821963E-02
78  7.7000000000000E-01  1.1370294158836E+00 -2.5247090688788E-02
79  7.8000000000000E-01  1.1452976285949E+00 -1.3241829392004E-02
80  7.9000000000000E-01  1.1533337476900E+00 -9.8941817899694E-04
81  8.0000000000000E-01  1.1610839567150E+00  1.1542747263885E-02
82  8.1000000000000E-01  1.1684907286898E+00  2.4390790921404E-02
83  8.2000000000000E-01  1.1754931247716E+00  3.7594068303230E-02
84  8.3000000000000E-01  1.1820271325170E+00  5.1194830430033E-02
85  8.4000000000000E-01  1.1880260420556E+00  6.5237841846792E-02
86  8.5000000000000E-01  1.1934208581185E+00  7.9769955056887E-02
87  8.6000000000000E-01  1.1981407454983E+00  9.4839644256833E-02
88  8.7000000000000E-01  1.2021135051696E+00  1.1049650172041E-01
89  8.8000000000000E-01  1.2052660779641E+00  1.2679070062761E-01
90  8.9000000000000E-01  1.2075250723844E+00  1.4377242855346E-01
91  9.0000000000000E-01  1.2088173128503E+00  1.6149129622034E-01
92  9.1000000000000E-01  1.2090704044095E+00  1.7999572646967E-01
93  9.2000000000000E-01  1.2082133097154E+00  1.9933232872175E-01
94  9.3000000000000E-01  1.2061769338695E+00  2.1954526446190E-01
95  9.4000000000000E-01  1.2028947125665E+00  2.4067560951322E-01
96  9.5000000000000E-01  1.1983031988472E+00  2.6276071902902E-01
97  9.6000000000000E-01  1.1923426436782E+00  2.8583360125810E-01
98  9.7000000000000E-01  1.1849575655241E+00  3.0992230620163E-01
99  9.8000000000000E-01  1.1760973040737E+00  3.3504933529029E-01
100  9.9000000000000E-01  1.1657165533102E+00  3.6123107816206E-01
101  1.0000000000000E+00  1.1537758691972E+00  3.8847728251666E-01
102  1.0100000000000E+00  1.1402421473652E+00  4.1679056285850E-01
103  1.0200000000000E+00  1.1250890663480E+00  4.4616595372016E-01
104  1.0300000000000E+00  1.1082974921181E+00  4.7659051268153E-01
105  1.0400000000000E+00  1.0898558399130E+00  5.0804297816846E-01
106  1.0500000000000E+00  1.0697603896245E+00  5.4049348663098E-01
107  1.0600000000000E+00  1.0480155513418E+00  5.7390335326782E-01
108  1.0700000000000E+00  1.0246340779897E+00  6.0822491998355E-01
109  1.0800000000000E+00  9.9963722238772E-01  6.4340147374192E-01
110  1.0900000000000E+00  9.7305483646910E-01  6.7936723791742E-01
111  1.1000000000000E+00  9.4492541083667E-01  7.1604743865033E-01
112  1.1100000000000E+00  9.1529605329292E-01  7.5335844758696E-01
113  1.1200000000000E+00  8.8422240546168E-01  7.9120800173586E-01
114  1.1300000000000E+00  8.5176849711097E-01  8.2949550050537E-01
115  1.1400000000000E+00  8.1800653829154E-01  8.6811237930654E-01
116  1.1500000000000E+00  7.8301664991389E-01  9.0694255842094E-01
117  1.1600000000000E+00  7.4688653389899E-01  9.4586296514486E-01
118  1.1700000000000E+00  7.0971108454448E-01  9.8474412654384E-01
119  1.1800000000000E+00  6.7159194325047E-01  1.0234508294807E+00
120  1.1900000000000E+00  6.3263699923522E-01  1.0618428439352E+00
121  1.2000000000000E+00  5.9295983934553E-01  1.0997757050068E+00
122  1.2100000000000E+00  5.5267915051547E-01  1.1371015483999E+00
123  1.2200000000000E+00  5.1191807885462E-01  1.1736699936379E+00
124  1.2300000000000E+00  4.7080354974379E-01  1.2093290687341E+00
125  1.2400000000000E+00  4.2946555367910E-01  1.2439261695880E+00
126  1.2500000000000E+00  3.8803640293478E-01  1.2773090469572E+00
127  1.2600000000000E+00  3.4664996440135E-01  1.3093268135043E+00
128  1.2700000000000E+00  3.0544087420178E-01  1.3398309631194E+00
129  1.2800000000000E+00  2.6454373988855E-01  1.3686763944921E+00
130  1.2900000000000E+00  2.2409233617633E-01  1.3957224307423E+00
131  1.3000000000000E+00  1.8421880026944E-01  1.4208338268276E+00
132  1.3100000000000E+00  1.4505283289544E-01  1.4438817564220E+00
133  1.3200000000000E+00  1.0672091115792E-01  1.4647447700140E+00
134  1.3300000000000E+00  6.9345519271682E-02  1.4833097160948E+00
135  1.3400000000000E+00  3.3044403140403E-02  1.4994726175038E+00
136  1.3500000000000E+00 -2.0701454159421E-03  1.5131394952679E+00
137  1.3600000000000E+00 -3.5891969180977E-02  1.5242271326092E+00
138  1.3700000000000E+00 -6.8321685458612E-02  1.5326637722010E+00
139  1.3800000000000E+00 -9.9267280336737E-02  1.5383897402233E+00
140  1.3900000000000E+00 -1.2864465259217E-01  1.5413579913033E+00
141  1.4000000000000E+00 -1.5637810291857E-01  1.5415345690117E+00
142  1.4100000000000E+00 -1.8240076458295E-01  1.5388989772304E+00
143  1.4200000000000E+00 -2.0665497207966E-01  1.5334444583944E+00
144  1.4300000000000E+00 -2.2909256484125E-01  1.5251781753428E+00
145  1.4400000000000E+00 -2.4967512358581E-01  1.5141212942763E+00
146  1.4500000000000E+00 -2.6837413742376E-01  1.5003089671159E+00
147  1.4600000000000E+00 -2.8517110040511E-01  1.4837902123699E+00
148  1.4700000000000E+00 -3.0005753676551E-01  1.4646276944503E+00
149  1.4800000000000E+00 -3.1303495470923E-01  1.4428974022165E+00
150  1.4900000000000E+00 -3.2411472915349E-01  1.4186882283620E+00
151  1.5000000000000E+00 -3.3331791444164E-01  1.3921014520903E+00
152  1.5100000000000E+00 -3.4067498860906E-01  1.3632501283431E+00
153  1.5200000000000E+00 -3.4622553134982E-01  1.3322583876377E+00
154  1.5300000000000E+00 -3.5001783837739E-01  1.2992606513312E+00
155  1.5400000000000E+00 -3.5210847539889E-01  1.2644007678604E+00
156  1.5500000000000E+00 -3.5256177541840E-01  1.2278310761904E+00
157  1.5600000000000E+00 -3.5144928355133E-01  1.1897114033359E+00
158  1.5700000000000E+00 -3.4884915396195E-01  1.1502080034032E+00
159  1.5800000000000E+00 -3.4484550392726E-01  1.1094924461166E+00
160  1.5900000000000E+00 -3.3952773037800E-01  1.0677404632457E+00
161  1.6000000000000E+00 -3.3298979456918E-01  1.0251307617343E+00
162  1.6100000000000E+00 -3.2532948078529E-01  9.8184381263826E-01
163  1.6200000000000E+00 -3.1664763518670E-01  9.3806062521227E-01
164  1.6300000000000E+00 -3.0704739105206E-01  8.9396151563886E-01
165  1.6400000000000E+00 -2.9663338676578E-01  8.4972487996255E-01
166  1.6500000000000E+00 -2.8551098293820E-01  8.0552598078376E-01
167  1.6600000000000E+00 -2.7378548502929E-01  7.6153575717387E-01
168  1.6700000000000E+00 -2.6156137777475E-01  7.1791966709937E-01
169  1.6800000000000E+00 -2.4894157757985E-01  6.7483657134307E-01
170  1.6900000000000E+00 -2.3602670887300E-01  6.3243766765386E-01
171  1.7000000000000E+00 -2.2291441056476E-01  5.9086548604838E-01
172  1.7100000000000E+00 -2.0969868123704E-01  5.5025297666820E-01
173  1.7200000000000E+00 -1.9646935258431E-01  5.1072328862079E-01
174  1.7300000000000E+00 -1.8331164471470E-01  4.7238977631702E-01
175  1.7400000000000E+00 -1.7030570199459E-01  4.3535551401855E-01
176  1.7500000000000E+00 -1.5752616422501E-01  3.9971276674874E-01
177  1.7600000000000E+00 -1.4504179505606E-01  3.6554256841475E-01
178  1.7700000000000E+00 -1.3291516784262E-01  3.3291439153160E-01
179  1.7800000000000E+00 -1.2120241131767E-01  3.0188591385634E-01
180  1.7900000000000E+00 -1.0995301660085E-01  2.7250288362898E-01
181  1.8000000000000E+00 -9.9209706481882E-02  2.4479908407341E-01
182  1.8100000000000E+00 -8.9008367375094E-02  2.1879639705455E-01
183  1.8200000000000E+00 -7.9378043781633E-02  1.9450496492091E-01
184  1.8300000000000E+00 -7.0340994547469E-02  1.7192344875537E-01
185  1.8400000000000E+00 -6.1912809661131E-02  1.5103938043912E-01
186  1.8500000000000E+00 -5.4102585797652E-02  1.3182960510559E-01
187  1.8600000000000E+00 -4.6913158305146E-02  1.1426080981740E-01
188  1.8700000000000E+00 -4.0341386836855E-02  9.8290133570580E-02
189  1.8800000000000E+00 -3.4378491362910E-02  8.3865853004607E-02
190  1.8900000000000E+00 -2.9010434864299E-02  7.0928137599724E-02
191  1.9000000000000E+00 -2.4218348600819E-02  5.9409867496579E-02
192  1.9100000000000E+00 -1.9978995490132E-02  4.9237506588804E-02
193  1.9200000000000E+00 -1.6265266807105E-02  4.0332023049274E-02
194  1.9300000000000E+00 -1.3046707130798E-02  3.2609849036909E-02
195  1.9400000000000E+00 -1.0290062236072E-02  2.5983871015592E-02
196  1.9500000000000E+00 -7.9598444424101E-03  2.0364441864430E-02
197  1.9600000000000E+00 -6.0189097942921E-03  1.5660405759833E-02
198  1.9700000000000E+00 -4.4290344884093E-03  1.1780116395558E-02
199  1.9800000000000E+00 -3.1515523863138E-03  8.6325409005389E-03
200  1.9900000000000E+00 -2.1477798156916E-03  6.1280369849218E-03
201  2.0000000000000E+00 -1.3797618665110E-03  4.1796099763940E-03
202  2.0100000000000E+00 -8.1302795779842E-04  2.7071666229273E-03
203  2.0200000000000E+00 -4.2012772778217E-04  1.6429071815460E-03
204  2.0300000000000E+00 -1.6705344544903E-04  9.1108098035364E-04
205  2.0400000000000E+00 -2.0161637289972E-05  4.3851811433911E-04
206  2.0500000000000E+00  5.0132830951105E-05  1.6027079826057E-04
207  2.0600000000000E+00  6.9706581257998E-05  1.9157780985729E-05
208  2.0700000000000E+00  6.0215132387169E-05 -3.3397927418574E-05
209  2.0800000000000E+00  3.8762147993024E-05 -3.6816335750480E-05
210  2.0900000000000E+00  1.7530545847771E-05 -2.0745685420782E-05
211  2.1000000000000E+00  4.1450511588934E-06 -5.6124610909870E-06
212  2.1100000000000E+00 -6.0048566105191E-08  8.9954983917528E-08
213  2.1200000000000E+00 -1.2478556286842E-07  2.0097044979562E-07
214  2.13  0. -0.
215  2.14 -0.  0.
216  2.15  0. -0.
217  2.16  0. -0.
218  2.17  0.  0.
219  2.18  0.  0.
220  2.19  0.  0.
221  2.20  0.  0.
222  2.21  0.  0.
223  2.22  0.  0.
224  2.23  0.  0.
225  2.24  0.  0.
226  2.25  0.  0.
227  2.26  0.  0.
228  2.27  0.  0.
229  2.28  0.  0.
230  2.29  0.  0.
231  2.30  0.  0.
232  2.31  0.  0.
233  2.32  0.  0.
234  2.33  0.  0.
235  2.34  0.  0.
236  2.35  0.  0.
237  2.36  0.  0.
238  2.37  0.  0.
239  2.38  0.  0.
240  2.39  0.  0.
241  2.40  0.  0.
242  2.41  0.  0.
243  2.42  0.  0.
244  2.43  0.  0.
245  2.44  0.  0.
246  2.45  0.  0.
247  2.46  0.  0.
248  2.47  0.  0.
249  2.48  0.  0.
250  2.49  0.  0.
251  2.50  0.  0.
252  2.51  0.  0.
253  2.52  0.  0.
254  2.53  0.  0.
255  2.54  0.  0.
256  2.55  0.  0.
257  2.56  0.  0.
258  2.57  0.  0.
259  2.58  0.  0.
260  2.59  0.  0.
261  2.60  0.  0.
262  2.61  0.  0.
263  2.62  0.  0.
264  2.63  0.  0.
265  2.64  0.  0.
266  2.65  0.  0.
267  2.66  0.  0.
268  2.67  0.  0.
269  2.68  0.  0.
270  2.69  0.  0.
271  2.70  0.  0.
272  2.71  0.  0.
273  2.72  0.  0.
274  2.73  0.  0.
275  2.74  0.  0.
276  2.75  0.  0.
277  2.76  0.  0.
278  2.77  0.  0.
279  2.78  0.  0.
280  2.79  0.  0.
281  2.80  0.  0.
282  2.81  0.  0.
283  2.82  0.  0.
284  2.83  0.  0.
285  2.84  0.  0.
286  2.85  0.  0.
287  2.86  0.  0.
288  2.87  0.  0.
289  2.88  0.  0.
290  2.89  0.  0.
291  2.90  0.  0.
292  2.91  0.  0.
293  2.92  0.  0.
294  2.93  0.  0.
295  2.94  0.  0.
296  2.95  0.  0.
297  2.96  0.  0.
298  2.97  0.  0.
299  2.98  0.  0.
300  2.99  0.  0.
301  3.00  0.  0.
302  3.01  0.  0.
303  3.02  0.  0.
304  3.03  0.  0.
305  3.04  0.  0.
306  3.05  0.  0.
307  3.06  0.  0.
308  3.07  0.  0.
309  3.08  0.  0.
310  3.09  0.  0.
311  3.10  0.  0.
312  3.11  0.  0.
313  3.12  0.  0.
314  3.13  0.  0.
315  3.14  0.  0.
316  3.15  0.  0.
317  3.16  0.  0.
318  3.17  0.  0.
319  3.18  0.  0.
320  3.19  0.  0.
321  3.20  0.  0.
322  3.21  0.  0.
323  3.22  0.  0.
324  3.23  0.  0.
325  3.24  0.  0.
326  3.25  0.  0.
327  3.26  0.  0.
328  3.27  0.  0.
329  3.28  0.  0.
330  3.29  0.  0.
331  3.30  0.  0.
332  3.31  0.  0.
333  3.32  0.  0.
334  3.33  0.  0.
335  3.34  0.  0.
336  3.35  0.  0.
337  3.36  0.  0.
338  3.37  0.  0.
339  3.38  0.  0.
340  3.39  0.  0.
341  3.40  0.  0.
342  3.41  0.  0.
343  3.42  0.  0.
344  3.43  0.  0.
345  3.44  0.  0.
346  3.45  0.  0.
347  3.46  0.  0.
348  3.47  0.  0.
349  3.48  0.  0.
350  3.49  0.  0.
351  3.50  0.  0.
352  3.51  0.  0.
353  3.52  0.  0.
354  3.53  0.  0.
355  3.54  0.  0.
356  3.55  0.  0.
357  3.56  0.  0.
358  3.57  0.  0.
359  3.58  0.  0.
360  3.59  0.  0.
361  3.60  0.  0.
362  3.61  0.  0.
363  3.62  0.  0.
364  3.63  0.  0.
365  3.64  0.  0.
366  3.65  0.  0.
367  3.66  0.  0.
368  3.67  0.  0.
369  3.68  0.  0.
370  3.69  0.  0.
371  3.70  0.  0.
372  3.71  0.  0.
373  3.72  0.  0.
374  3.73  0.  0.
375  3.74  0.  0.
376  3.75  0.  0.
377  3.76  0.  0.
378  3.77  0.  0.
379  3.78  0.  0.
380  3.79  0.  0.
381  3.80  0.  0.
382  3.81  0.  0.
383  3.82  0.  0.
384  3.83  0.  0.
385  3.84  0.  0.
386  3.85  0.  0.
387  3.86  0.  0.
388  3.87  0.  0.
389  3.88  0.  0.
390  3.89  0.  0.
391  3.90  0.  0.
392  3.91  0.  0.
393  3.92  0.  0.
394  3.93  0.  0.
395  3.94  0.  0.
396  3.95  0.  0.
397  3.96  0.  0.
398  3.97  0.  0.
399  3.98  0.  0.
400  3.99  0.  0.
401  4.00  0.  0.
402  4.01  0.  0.
403  4.02  0.  0.
404  4.03  0.  0.
405  4.04  0.  0.
406  4.05  0.  0.
407  4.06  0.  0.
408  4.07  0.  0.
409  4.08  0.  0.
410  4.09  0.  0.
411  4.10  0.  0.
412  4.11  0.  0.
413  4.12  0.  0.
414  4.13  0.  0.
415  4.14  0.  0.
416  4.15  0.  0.
417  4.16  0.  0.
418  4.17  0.  0.
419  4.18  0.  0.
420  4.19  0.  0.
421  4.20  0.  0.
422  4.21  0.  0.
423  4.22  0.  0.
424  4.23  0.  0.
425  4.24  0.  0.
426  4.25  0.  0.
427  4.26  0.  0.
428  4.27  0.  0.
429  4.28  0.  0.
430  4.29  0.  0.
431  4.30  0.  0.
432  4.31  0.  0.
433  4.32  0.  0.
434  4.33  0.  0.
435  4.34  0.  0.
436  4.35  0.  0.
437  4.36  0.  0.
438  4.37  0.  0.
439  4.38  0.  0.
440  4.39  0.  0.
441  4.40  0.  0.
442  4.41  0.  0.
443  4.42  0.  0.
444  4.43  0.  0.
445  4.44  0.  0.
446  4.45  0.  0.
447  4.46  0.  0.
448  4.47  0.  0.
449  4.48  0.  0.
450  4.49  0.  0.
451  4.50  0.  0.
452  4.51  0.  0.
453  4.52  0.  0.
454  4.53  0.  0.
455  4.54  0.  0.
456  4.55  0.  0.
457  4.56  0.  0.
458  4.57  0.  0.
459  4.58  0.  0.
460  4.59  0.  0.
461  4.60  0.  0.
462  4.61  0.  0.
463  4.62  0.  0.
464  4.63  0.  0.
465  4.64  0.  0.
466  4.65  0.  0.
467  4.66  0.  0.
468  4.67  0.  0.
469  4.68  0.  0.
470  4.69  0.  0.
471  4.70  0.  0.
472  4.71  0.  0.
473  4.72  0.  0.
474  4.73  0.  0.
475  4.74  0.  0.
476  4.75  0.  0.
477  4.76  0.  0.
478  4.77  0.  0.
479  4.78  0.  0.
480  4.79  0.  0.
481  4.80  0.  0.
482  4.81  0.  0.
483  4.82  0.  0.
484  4.83  0.  0.
485  4.84  0.  0.
486  4.85  0.  0.
487  4.86  0.  0.
488  4.87  0.  0.
489  4.88  0.  0.
490  4.89  0.  0.
491  4.90  0.  0.
492  4.91  0.  0.
493  4.92  0.  0.
494  4.93  0.  0.
495  4.94  0.  0.
496  4.95  0.  0.
497  4.96  0.  0.
498  4.97  0.  0.
499  4.98  0.  0.
500  4.99  0.  0.
501  5.00  0.  0.
502  5.01  0.  0.
503  5.02  0.  0.
504  5.03  0.  0.
505  5.04  0.  0.
506  5.05  0.  0.
507  5.06  0.  0.
508  5.07  0.  0.
509  5.08  0.  0.
510  5.09  0.  0.
511  5.10  0.  0.
512  5.11  0.  0.
513  5.12  0.  0.
514  5.13  0.  0.
515  5.14  0.  0.
516  5.15  0.  0.
517  5.16  0.  0.
518  5.17  0.  0.
519  5.18  0.  0.
520  5.19  0.  0.
521  5.20  0.  0.
522  5.21  0.  0.
523  5.22  0.  0.
524  5.23  0.  0.
525  5.24  0.  0.
526  5.25  0.  0.
527  5.26  0.  0.
528  5.27  0.  0.
529  5.28  0.  0.
530  5.29  0.  0.
531  5.30  0.  0.
532  5.31  0.  0.
533  5.32  0.  0.
534  5.33  0.  0.
535  5.34  0.  0.
536  5.35  0.  0.
537  5.36  0.  0.
538  5.37  0.  0.
539  5.38  0.  0.
540  5.39  0.  0.
541  5.40  0.  0.
542  5.41  0.  0.
543  5.42  0.  0.
544  5.43  0.  0.
545  5.44  0.  0.
546  5.45  0.  0.
547  5.46  0.  0.
548  5.47  0.  0.
549  5.48  0.  0.
550  5.49  0.  0.
551  5.50  0.  0.
552  5.51  0.  0.
553  5.52  0.  0.
554  5.53  0.  0.
555  5.54  0.  0.
556  5.55  0.  0.
557  5.56  0.  0.
558  5.57  0.  0.
559  5.58  0.  0.
560  5.59  0.  0.
561  5.60  0.  0.
562  5.61  0.  0.
563  5.62  0.  0.
564  5.63  0.  0.
565  5.64  0.  0.
566  5.65  0.  0.
567  5.66  0.  0.
568  5.67  0.  0.
569  5.68  0.  0.
570  5.69  0.  0.
571  5.70  0.  0.
572  5.71  0.  0.
573  5.72  0.  0.
574  5.73  0.  0.
575  5.74  0.  0.
576  5.75  0.  0.
577  5.76  0.  0.
578  5.77  0.  0.
579  5.78  0.  0.
580  5.79  0.  0.
581  5.80  0.  0.
582  5.81  0.  0.
583  5.82  0.  0.
584  5.83  0.  0.
585  5.84  0.  0.
586  5.85  0.  0.
587  5.86  0.  0.
588  5.87  0.  0.
589  5.88  0.  0.
590  5.89  0.  0.
591  5.90  0.  0.
592  5.91  0.  0.
593  5.92  0.  0.
594  5.93  0.  0.
595  5.94  0.  0.
596  5.95  0.  0.
597  5.96  0.  0.
598  5.97  0.  0.
599  5.98  0.  0.
600  5.99  0.  0.
1                         5.8465326306083E+00  9.9722522217283E-01
1  0.0000000000000E+00 -2.2780925063026E-10  2.9364691741022E-10
2  1.0000000000000E-02  2.5284755196047E-04  5.5476870020595E-06
3  2.0000000000000E-02  1.0122332667534E-03  2.0798400306978E-05
4  3.0000000000000E-02  2.2806737383910E-03  4.1591637087700E-05
5  4.0000000000000E-02  4.0623214702522E-03  6.1048202358897E-05
6  5.0000000000000E-02  6.3629025725883E-03  6.9652122406747E-05
7  6.0000000000000E-02  9.1896303900773E-03  5.5364226309756E-05
8  7.0000000000000E-02  1.2551095901519E-02  3.7663098380602E-06
9  8.0000000000000E-02  1.6457135961565E-02 -1.0176549762820E-04
10  9.0000000000000E-02  2.0918680672856E-02 -2.7985982412891E-04
11  1.0000000000000E-01  2.5947581383942E-02 -5.5092353184541E-04
12  1.1000000000000E-01  3.1556421002296E-02 -9.3689175712054E-04
13  1.2000000000000E-01  3.7758308490623E-02 -1.4609569218423E-03
14  1.3000000000000E-01  4.4566659577113E-02 -2.1472793334440E-03
15  1.4000000000000E-01  5.1994965854595E-02 -3.0206821765344E-03
16  1.5000000000000E-01  6.0056554568670E-02 -4.1063338601669E-03
17  1.6000000000000E-01  6.8764341499331E-02 -5.4294208190347E-03
18  1.7000000000000E-01  7.8130579423644E-02 -7.0148139735845E-03
19  1.8000000000000E-01  8.8166604707694E-02 -8.8867321318165E-03
20  1.9000000000000E-01  9.8882584613752E-02 -1.1068405663787E-02
21  2.0000000000000E-01  1.1028726792288E-01 -1.3581743797838E-02
22  2.1000000000000E-01  1.2238774146386E-01 -1.6447008875213E-02
23  2.2000000000000E-01  1.3518919510638E-01 -1.9682500856743E-02
24  2.3000000000000E-01  1.4869469771965E-01 -2.3304255302190E-02
25  2.4000000000000E-01  1.6290498651816E-01 -2.7325757939766E-02
26  2.5000000000000E-01  1.7781827211369E-01 -3.1757678811419E-02
27  2.6000000000000E-01  1.9343006146861E-01 -3.6607628819332E-02
28  2.7000000000000E-01  2.0973300080049E-01 -4.1879941312305E-02
29  2.8000000000000E-01  2.2671674032274E-01 -4.7575481138421E-02
30  2.9000000000000E-01  2.4436782252339E-01 -5.3691483354713E-02
31  3.0000000000000E-01  2.6266959548278E-01 -6.0221423527002E-02
32  3.1000000000000E-01  2.8160215251627E-01 -6.7154921276169E-02
33  3.2000000000000E-01  3.0114229919793E-01 -7.4477678432820E-02
34  3.3000000000000E-01  3.2126354858067E-01 -8.2171452853389E-02
35  3.4000000000000E-01  3.4193614517768E-01 -9.0214068629581E-02
36  3.5000000000000E-01  3.6312711801155E-01 -9.8579463092626E-02
37  3.6000000000000E-01  3.8480036277439E-01 -1.0723777067685E-01
38  3.7000000000000E-01  4.0691675287550E-01 -1.1615544336646E-01
39  3.8000000000000E-01  4.2943427888608E-01 -1.2529540710851E-01
40  3.9000000000000E-01  4.5230821562457E-01 -1.3461725323608E-01
41  4.0000000000000E-01  4.7549131586497E-01 -1.4407746361291E-01
42  4.1000000000000E-01  4.9893402939473E-01 -1.5362966788569E-01
43  4.2000000000000E-01  5.2258474590237E-01 -1.6322493091739E-01
44  4.3000000000000E-01  5.4639005993906E-01 -1.7281206817608E-01
45  4.4000000000000E-01  5.7029505597558E-01 -1.8233798657189E-01
46  4.5000000000000E-01  5.9424361136868E-01 -1.9174804797353E-01
47  4.6000000000000E-01  6.1817871486017E-01 -2.0098645239585E-01
48  4.7000000000000E-01  6.4204279806104E-01 -2.0999663763576E-01
49  4.8000000000000E-01  6.6577807722192E-01 -2.1872169194608E-01
50  4.9000000000000E-01  6.8932690246321E-01 -2.2710477617804E-01
51  5.0000000000000E-01  7.1263211153326E-01 -2.3508955169520E-01
52  5.1000000000000E-01  7.3563738508345E-01 -2.4262061026540E-01
53  5.2000000000000E-01  7.5828760039506E-01 -2.4964390207475E-01
54  5.3000000000000E-01  7.8052918046566E-01 -2.5610715797925E-01
55  5.4000000000000E-01  8.0231043536251E-01 -2.6196030211597E-01
56  5.5000000000000E-01  8.2358189277826E-01 -2.6715585103743E-01
57  5.6000000000000E-01  8.4429661477919E-01 -2.7164929560993E-01
58  5.7000000000000E-01  8.6441049781867E-01 -2.7539946202821E-01
59  5.8000000000000E-01  8.8388255319857E-01 -2.7836884844542E-01
60  5.9000000000000E-01  9.0267516529684E-01 -2.8052393389710E-01
61  6.0000000000000E-01  9.2075432504179E-01 -2.8183545640999E-01
62  6.1000000000000E-01  9.3808983629898E-01 -2.8227865742928E-01
63  6.2000000000000E-01  9.5465549304645E-01 -2.8183348996998E-01
64  6.3000000000000E-01  9.7042922544438E-01 -2.8048478819662E-01
65  6.4000000000000E-01  9.8539321315597E-01 -2.7822239645877E-01
66  6.5000000000000E-01  9.9953396454467E-01 -2.7504125615527E-01
67  6.6000000000000E-01  1.0128423606572E+00 -2.7094144916398E-01
68  6.7000000000000E-01  1.0253136631987E+00 -2.6592819695467E-01
69  6.8000000000000E-01  1.0369474860158E+00 -2.6001181489545E-01
70  6.9000000000000E-01  1.0477477299186E+00 -2.5320762166628E-01
71  7.0000000000000E-01  1.0577224809972E+00 -2.4553580410120E-01
72  7.1000000000000E-01  1.0668838729106E+00 -2.3702123819260E-01
73  7.2000000000000E-01  1.0752479139554E+00 -2.2769326739994E-01
74  7.3000000000000E-01  1.0828342800390E+00 -2.1758543981038E-01
75  7.4000000000000E-01  1.0896660750048E+00 -2.0673520609474E-01
76  7.5000000000000E-01  1.0957695600595E+00 -1.9518358058546E-01
77  7.6000000000000E-01  1.1011738543534E+00 -1.8297476817094E-01
78  7.7000000000000E-01  1.1059106090453E+00 -1.7015576004841E-01
79  7.8000000000000E-01  1.1100136574507E+00 -1.5677590170244E-01
80  7.9000000000000E-01  1.1135186441158E+00 -1.4288643677466E-01
81  8.0000000000000E-01  1.1164626358884E+00 -1.2854003075984E-01
82  8.1000000000000E-01  1.1188837182524E+00 -1.1379027870055E-01
83  8.2000000000000E-01  1.1208205803700E+00 -9.8691201255181E-02
84  8.3000000000000E-01  1.1223120924199E+00 -8.3296733679690E-02
85  8.4000000000000E-01  1.1233968789374E+00 -6.7660212389756E-02
86  8.5000000000000E-01  1.1241128919446E+00 -5.1833863856061E-02
87  8.6000000000000E-01  1.1244969877139E+00 -3.5868300629000E-02
88  8.7000000000000E-01  1.1245845110270E+00 -1.9812029290038E-02
89  8.8000000000000E-01  1.1244088907743E+00 -3.7109750839903E-03
90  8.9000000000000E-01  1.1240012506951E+00  1.2391972100045E-02
91  9.0000000000000E-01  1.1233900389719E+00  2.8457385861749E-02
92  9.1000000000000E-01  1.1226006802774E+00  4.4449701172499E-02
93  9.2000000000000E-01  1.1216552537226E+00  6.0337577859608E-02
94  9.3000000000000E-01  1.1205721999705E+00  7.6094225799387E-02
95  9.4000000000000E-01  1.1193660605664E+00  9.1697688221720E-02
96  9.5000000000000E-01  1.1180472522940E+00  1.0713107986083E-01
97  9.6000000000000E-01  1.1166218790909E+00  1.2238277705326E-01
98  9.7000000000000E-01  1.1150915837638E+00  1.3744655728181E-01
99  9.8000000000000E-01  1.1134534414205E+00  1.5232168609057E-01
100  9.9000000000000E-01  1.1116998961919E+00  1.6701294974716E-01
101  1.0000000000000E+00  1.1098187424615E+00  1.8153063250046E-01
102  1.0100000000000E+00  1.1077931514375E+00  1.9589043777158E-01
103  1.0200000000000E+00  1.1056017435205E+00  2.1011335311833E-01
104  1.0300000000000E+00  1.1032187065179E+00  2.2422545932433E-01
105  1.0400000000000E+00  1.1006139593563E+00  2.3825768447884E-01
106  1.0500000000000E+00  1.0977533605371E+00  2.5224550442879E-01
107  1.0600000000000E+00  1.0945989601769E+00  2.6622859149302E-01
108  1.0700000000000E+00  1.0911092940768E+00  2.8025041382927E-01
109  1.0800000000000E+00  1.0872397178747E+00  2.9435778832971E-01
110  1.0900000000000E+00  1.0829427789557E+00  3.0860039038616E-01
111  1.1000000000000E+00  1.0781686234371E+00  3.2303022431055E-01
112  1.1100000000000E+00  1.0728654351971E+00  3.3770105860945E-01
113  1.1200000000000E+00  1.0669799035995E+00  3.5266783069585E-01
114  1.1300000000000E+00  1.0604577162693E+00  3.6798602596789E-01
115  1.1400000000000E+00  1.0532440730077E+00  3.8371103649257E-01
116  1.1500000000000E+00  1.0452842166979E+00  3.9989750479709E-01
117  1.1600000000000E+00  1.0365239768516E+00  4.1659865849073E-01
118  1.1700000000000E+00  1.0269103212785E+00  4.3386564161048E-01
119  1.1800000000000E+00  1.0163919112294E+00  4.5174684870534E-01
120  1.1900000000000E+00  1.0049196552754E+00  4.7028726774231E-01
121  1.2000000000000E+00  9.9244725713187E-01  4.8952783793235E-01
122  1.2100000000000E+00  9.7893175262863E-01  5.0950482853579E-01
123  1.2200000000000E+00  9.6433403105782E-01  5.3024924461252E-01
124  1.2300000000000E+00  9.4861933620494E-01  5.5178626553402E-01
125  1.2400000000000E+00  9.3175774248376E-01  5.7413472187270E-01
126  1.2500000000000E+00  9.1372460175175E-01  5.9730661602805E-01
127  1.2600000000000E+00  8.9450095657844E-01  6.2130669164381E-01