Pm    ONCVPSP-4.0.1  r_core=   2.00379   1.60593   1.91015   1.60593
61.0000     15.0000      241101    zatom,zion,pspd
8      11   3     4   600     0    pspcod,pspxc,lmax,lloc,mmax,r2well
5.99000000  4.00000000  0.00000000    rchrg fchrg qchrg
2     2     2     2     0    nproj
1     1           extension_switch
0                         7.0945765468092E+00  4.6646555515365E-01
1  0.0000000000000E+00  7.1180228378154E-11 -3.2012351103283E-10
2  1.0000000000000E-02  3.7849005807702E-02 -4.3212342919833E-03
3  2.0000000000000E-02  7.5684481752857E-02 -8.6863009922293E-03
4  3.0000000000000E-02  1.1349272043593E-01 -1.3138321574588E-02
5  4.0000000000000E-02  1.5125966131734E-01 -1.7719003534156E-02
6  5.0000000000000E-02  1.8897071896403E-01 -2.2467953041004E-02
7  6.0000000000000E-02  2.2661061702519E-01 -2.7422010936628E-02
8  7.0000000000000E-02  2.6416322976248E-01 -3.2614619474742E-02
9  8.0000000000000E-02  3.0161143288910E-01 -3.8075226887929E-02
10  9.0000000000000E-02  3.3893696538431E-01 -4.3828736467353E-02
11  1.0000000000000E-01  3.7612030384642E-01 -4.9895006378536E-02
12  1.1000000000000E-01  4.1314055082915E-01 -5.6288405906471E-02
13  1.2000000000000E-01  4.4997533847443E-01 -6.3017433233453E-02
14  1.3000000000000E-01  4.8660074861035E-01 -7.0084399209115E-02
15  1.4000000000000E-01  5.2299125032772E-01 -7.7485180880233E-02
16  1.5000000000000E-01  5.5911965588348E-01 -8.5209047815402E-02
17  1.6000000000000E-01  5.9495709560650E-01 -9.3238563493788E-02
18  1.7000000000000E-01  6.3047301230162E-01 -1.0154956323548E-01
19  1.8000000000000E-01  6.6563517546337E-01 -1.1011120934189E-01
20  1.9000000000000E-01  7.0040971542381E-01 -1.1888612329597E-01
21  2.0000000000000E-01  7.3476117737020E-01 -1.2783059405237E-01
22  2.1000000000000E-01  7.6865259498001E-01 -1.3689486063549E-01
23  2.2000000000000E-01  8.0204558323505E-01 -1.4602346646640E-01
24  2.3000000000000E-01  8.3490044979482E-01 -1.5515568206726E-01
25  2.4000000000000E-01  8.6717632413280E-01 -1.6422599205070E-01
26  2.5000000000000E-01  8.9883130347085E-01 -1.7316464160058E-01
27  2.6000000000000E-01  9.2982261438730E-01 -1.8189823699629E-01
28  2.7000000000000E-01  9.6010678882474E-01 -1.9035039413251E-01
29  2.8000000000000E-01  9.8963985308659E-01 -1.9844242844613E-01
30  2.9000000000000E-01  1.0183775282870E+00 -2.0609407918881E-01
31  3.0000000000000E-01  1.0462754406094E+00 -2.1322426058049E-01
32  3.1000000000000E-01  1.0732893396337E+00 -2.1975183205336E-01
33  3.2000000000000E-01  1.0993753229158E+00 -2.2559637954826E-01
34  3.3000000000000E-01  1.1244900649400E+00 -2.3067899966169E-01
35  3.4000000000000E-01  1.1485910485232E+00 -2.3492307836168E-01
36  3.5000000000000E-01  1.1716367967236E+00 -2.3825505599743E-01
37  3.6000000000000E-01  1.1935871032999E+00 -2.4060517042069E-01
38  3.7000000000000E-01  1.2144032597778E+00 -2.4190817021575E-01
39  3.8000000000000E-01  1.2340482772098E+00 -2.4210399029874E-01
40  3.9000000000000E-01  1.2524871007630E+00 -2.4113838249294E-01
41  4.0000000000000E-01  1.2696868153323E+00 -2.3896349411305E-01
42  4.1000000000000E-01  1.2856168404590E+00 -2.3553838809167E-01
43  4.2000000000000E-01  1.3002491129319E+00 -2.3082949875413E-01
44  4.3000000000000E-01  1.3135582555605E+00 -2.2481101798466E-01
45  4.4000000000000E-01  1.3255217307357E+00 -2.1746520722343E-01
46  4.5000000000000E-01  1.3361199775322E+00 -2.0878263148307E-01
47  4.6000000000000E-01  1.3453365312583E+00 -1.9876231236688E-01
48  4.7000000000000E-01  1.3531581245162E+00 -1.8741179790155E-01
49  4.8000000000000E-01  1.3595747690052E+00 -1.7474714785667E-01
50  4.9000000000000E-01  1.3645798174754E+00 -1.6079283410214E-01
51  5.0000000000000E-01  1.3681700054168E+00 -1.4558155644451E-01
52  5.1000000000000E-01  1.3703454722525E+00 -1.2915397527470E-01
53  5.2000000000000E-01  1.3711097619875E+00 -1.1155836324320E-01
54  5.3000000000000E-01  1.3704698034463E+00 -9.2850179045578E-02
55  5.4000000000000E-01  1.3684358704146E+00 -7.3091567241483E-02
56  5.5000000000000E-01  1.3650215221750E+00 -5.2350788836314E-02
57  5.6000000000000E-01  1.3602435250970E+00 -3.0701588115547E-02
58  5.7000000000000E-01  1.3541217561042E+00 -8.2225019320877E-03
59  5.8000000000000E-01  1.3466790889934E+00  1.5003881703409E-02
60  5.9000000000000E-01  1.3379412647260E+00  3.8891708296778E-02
61  6.0000000000000E-01  1.3279367469378E+00  6.3352676866678E-02
62  6.1000000000000E-01  1.3166965640343E+00  8.8296886891255E-02
63  6.2000000000000E-01  1.3042541393392E+00  1.1363370348713E-01
64  6.3000000000000E-01  1.2906451108511E+00  1.3927263184580E-01
65  6.4000000000000E-01  1.2759071422355E+00  1.6512419178664E-01
66  6.5000000000000E-01  1.2600797267326E+00  1.9110078321426E-01
67  6.6000000000000E-01  1.2432039856989E+00  2.1711753329116E-01
68  6.7000000000000E-01  1.2253224635219E+00  2.4309311625536E-01
69  6.8000000000000E-01  1.2064789206466E+00  2.6895053702651E-01
70  6.9000000000000E-01  1.1867181264420E+00  2.9461787004966E-01
71  7.0000000000000E-01  1.1660856536011E+00  3.2002894522252E-01
72  7.1000000000000E-01  1.1446276757221E+00  3.4512397323408E-01
73  7.2000000000000E-01  1.1223907696529E+00  3.6985010320664E-01
74  7.3000000000000E-01  1.0994217241068E+00  3.9416190617249E-01
75  7.4000000000000E-01  1.0757673559601E+00  4.1802177862604E-01
76  7.5000000000000E-01  1.0514743355440E+00  4.4140026116261E-01
77  7.6000000000000E-01  1.0265890221220E+00  4.6427626804053E-01
78  7.7000000000000E-01  1.0011573106231E+00  4.8663722437413E-01
79  7.8000000000000E-01  9.7522449056694E-01  5.0847910857191E-01
80  7.9000000000000E-01  9.4883511797298E-01  5.2980639856928E-01
81  8.0000000000000E-01  9.2203290090778E-01  5.5063192135649E-01
82  8.1000000000000E-01  8.9486059916970E-01  5.7097660626191E-01
83  8.2000000000000E-01  8.6735993846424E-01  5.9086914340789E-01
84  8.3000000000000E-01  8.3957153927233E-01  6.1034554970047E-01
85  8.4000000000000E-01  8.1153486046583E-01  6.2944864563771E-01
86  8.5000000000000E-01  7.8328815758046E-01  6.4822744711189E-01
87  8.6000000000000E-01  7.5486845551599E-01  6.6673647723270E-01
88  8.7000000000000E-01  7.2631153530103E-01  6.8503500400056E-01
89  8.8000000000000E-01  6.9765193443326E-01  7.0318621040587E-01
90  8.9000000000000E-01  6.6892296018957E-01  7.2125630421252E-01
91  9.0000000000000E-01  6.4015671519318E-01  7.3931357529794E-01
92  9.1000000000000E-01  6.1138413442845E-01  7.5742740896027E-01
93  9.2000000000000E-01  5.8263503280894E-01  7.7566726406381E-01
94  9.3000000000000E-01  5.5393816233087E-01  7.9410162527090E-01
95  9.4000000000000E-01  5.2532127778295E-01  8.1279693890272E-01
96  9.5000000000000E-01  4.9681120993439E-01  8.3181654217900E-01
97  9.6000000000000E-01  4.6843394508581E-01  8.5121959570987E-01
98  9.7000000000000E-01  4.4021470984255E-01  8.7106002915143E-01
99  9.8000000000000E-01  4.1217805995576E-01  8.9138550989349E-01
100  9.9000000000000E-01  3.8434797207307E-01  9.1223644452508E-01
101  1.0000000000000E+00  3.5674793724725E-01  9.3364502262691E-01
102  1.0100000000000E+00  3.2940105506578E-01  9.5563431217190E-01
103  1.0200000000000E+00  3.0233012728737E-01  9.7821741548466E-01
104  1.0300000000000E+00  2.7555774990042E-01  1.0013966943209E+00
105  1.0400000000000E+00  2.4910640255252E-01  1.0251630721880E+00
106  1.0500000000000E+00  2.2299853433838E-01  1.0494954215439E+00
107  1.0600000000000E+00  1.9725664497388E-01  1.0743600429916E+00
108  1.0700000000000E+00  1.7190336042558E-01  1.0997102430366E+00
109  1.0800000000000E+00  1.4696150210615E-01  1.1254860164044E+00
110  1.0900000000000E+00  1.2245414878626E-01  1.1516138383305E+00
111  1.1000000000000E+00  9.8404690410369E-02  1.1780065716425E+00
112  1.1100000000000E+00  7.4836873037803E-02  1.2045634928581E+00
113  1.1200000000000E+00  5.1774834159396E-02  1.2311704409335E+00
114  1.1300000000000E+00  2.9243127664619E-02  1.2577000917122E+00
115  1.1400000000000E+00  7.2667377528169E-03  1.2840123605510E+00
116  1.1500000000000E+00 -1.4128918904027E-02  1.3099549350404E+00
117  1.1600000000000E+00 -3.4918003431165E-02  1.3353639391881E+00
118  1.1700000000000E+00 -5.5074278133700E-02  1.3600647298965E+00
119  1.1800000000000E+00 -7.4571143671769E-02  1.3838728260406E+00
120  1.1900000000000E+00 -9.3381690710031E-02  1.4065949699218E+00
121  1.2000000000000E+00 -1.1147876672585E-01  1.4280303203506E+00
122  1.2100000000000E+00 -1.2883505866169E-01  1.4479717760674E+00
123  1.2200000000000E+00 -1.4542319210461E-01  1.4662074276484E+00
124  1.2300000000000E+00 -1.6121584766605E-01  1.4825221354464E+00
125  1.2400000000000E+00 -1.7618589521562E-01  1.4966992304646E+00
126  1.2500000000000E+00 -1.9030654658932E-01  1.5085223343511E+00
127  1.2600000000000E+00 -2.0355152734088E-01  1.5177772938934E+00
128  1.2700000000000E+00 -2.1589526803174E-01  1.5242542244900E+00
129  1.2800000000000E+00 -2.2731311545420E-01  1.5277496560360E+00
130  1.2900000000000E+00 -2.3778156404879E-01  1.5280687734693E+00
131  1.3000000000000E+00 -2.4727850760566E-01  1.5250277428490E+00
132  1.3100000000000E+00 -2.5578351112549E-01  1.5184561122669E+00
133  1.3200000000000E+00 -2.6327810244920E-01  1.5081992750674E+00
134  1.3300000000000E+00 -2.6974608294464E-01  1.4941209807651E+00
135  1.3400000000000E+00 -2.7517385615515E-01  1.4761058766746E+00
136  1.3500000000000E+00 -2.7955077285836E-01  1.4540620605317E+00
137  1.3600000000000E+00 -2.8286949045327E-01  1.4279236213011E+00
138  1.3700000000000E+00 -2.8512634397567E-01  1.3976531418615E+00
139  1.3800000000000E+00 -2.8632172533705E-01  1.3632441333360E+00
140  1.3900000000000E+00 -2.8646046656967E-01  1.3247233663867E+00
141  1.4000000000000E+00 -2.8555222194764E-01  1.2821530598681E+00
142  1.4100000000000E+00 -2.8361184282039E-01  1.2356328817142E+00
143  1.4200000000000E+00 -2.8065973783970E-01  1.1853017108262E+00
144  1.4300000000000E+00 -2.7672220997517E-01  1.1313391019768E+00
145  1.4400000000000E+00 -2.7183176027844E-01  1.0739663882717E+00
146  1.4500000000000E+00 -2.6602734678098E-01  1.0134473475347E+00
147  1.4600000000000E+00 -2.5935458516923E-01  9.5008834999831E-01
148  1.4700000000000E+00 -2.5186587597102E-01  8.8423789485606E-01
149  1.4800000000000E+00 -2.4362044090382E-01  8.1628543254541E-01
150  1.4900000000000E+00 -2.3468424875805E-01  7.4665935797678E-01
151  1.5000000000000E+00 -2.2512980871047E-01  6.7582404726361E-01
152  1.5100000000000E+00 -2.1503580628118E-01  6.0427579682750E-01
153  1.5200000000000E+00 -2.0448655423814E-01  5.3253750892081E-01
154  1.5300000000000E+00 -1.9357122761196E-01  4.6115195160730E-01
155  1.5400000000000E+00 -1.8238284859593E-01  3.9067340398683E-01
156  1.5500000000000E+00 -1.7101698346002E-01  3.2165747888107E-01
157  1.5600000000000E+00 -1.5957010967902E-01  2.5464889518512E-01
158  1.5700000000000E+00 -1.4813760728562E-01  1.9016695074249E-01
159  1.5800000000000E+00 -1.3681132282603E-01  1.2868841468265E-01
160  1.5900000000000E+00 -1.2567664906768E-01  7.0627532314330E-02
161  1.6000000000000E+00 -1.1480913854112E-01  1.6313436493411E-02
162  1.6100000000000E+00 -1.0427015124904E-01 -3.4038836283398E-02
163  1.6200000000000E+00 -9.4105770649611E-02 -8.0329727159395E-02
164  1.6300000000000E+00 -8.4353400267004E-02 -1.2251651365466E-01
165  1.6400000000000E+00 -7.5046084790715E-02 -1.6057690684520E-01
166  1.6500000000000E+00 -6.6212197377621E-02 -1.9451114783874E-01
167  1.6600000000000E+00 -5.7875432325270E-02 -2.2434167297400E-01
168  1.6700000000000E+00 -5.0054769602207E-02 -2.5011313904692E-01
169  1.6800000000000E+00 -4.2764474158318E-02 -2.7189227631197E-01
170  1.6900000000000E+00 -3.6014132898093E-02 -2.8976754868477E-01
171  1.7000000000000E+00 -2.9808727683933E-02 -3.0384863423864E-01
172  1.7100000000000E+00 -2.4148743938787E-02 -3.1426572822637E-01
173  1.7200000000000E+00 -1.9030314091223E-02 -3.2116867253710E-01
174  1.7300000000000E+00 -1.4445394795189E-02 -3.2472591708141E-01
175  1.7400000000000E+00 -1.0381976563172E-02 -3.2512332006924E-01
176  1.7500000000000E+00 -6.8243241166237E-03 -3.2256279593821E-01
177  1.7600000000000E+00 -3.7532455076427E-03 -3.1726082089583E-01
178  1.7700000000000E+00 -1.1463877947746E-03 -3.0944680743738E-01
179  1.7800000000000E+00  1.0214432439776E-03 -2.9936136082524E-01
180  1.7900000000000E+00  2.7779419859910E-03 -2.8725443086036E-01
181  1.8000000000000E+00  4.1529433711304E-03 -2.7338337410924E-01
182  1.8100000000000E+00  5.1780481490229E-03 -2.5801094391918E-01
183  1.8200000000000E+00  5.8862356410954E-03 -2.4140322099001E-01
184  1.8300000000000E+00  6.3114680484875E-03 -2.2382750629235E-01
185  1.8400000000000E+00  6.4882893236802E-03 -2.0555019107280E-01
186  1.8500000000000E+00  6.4514222694978E-03 -1.8683462297680E-01
187  1.8600000000000E+00  6.2353674126823E-03 -1.6793898647111E-01
188  1.8700000000000E+00  5.8740093106091E-03 -1.4911422381146E-01
189  1.8800000000000E+00  5.4002129582503E-03 -1.3060193478646E-01
190  1.8900000000000E+00  4.8454964648827E-03 -1.1263258636091E-01
191  1.9000000000000E+00  4.2396173874072E-03 -9.5423434692338E-02
192  1.9100000000000E+00  3.6092919250326E-03 -7.9173089157769E-02
193  1.9200000000000E+00  2.9772033811826E-03 -6.4057109307873E-02
194  1.9300000000000E+00  2.3668512068920E-03 -5.0246336138011E-02
195  1.9400000000000E+00  1.7991137581810E-03 -3.7893548512462E-02
196  1.9500000000000E+00  1.2914062274202E-03 -2.7129901677004E-02
197  1.9600000000000E+00  8.5760845426502E-04 -1.8064328250677E-02
198  1.9700000000000E+00  5.0792752850881E-04 -1.0783883453217E-02
199  1.9800000000000E+00  2.4847066361436E-04 -5.3461306922229E-03
200  1.9900000000000E+00  8.1291391758081E-05 -1.7822901033311E-03
201  2.0000000000000E+00  8.8140993073280E-06 -1.9853753620181E-04
202  2.0100000000000E+00 -2.6876195787167E-06  6.1205196528069E-05
203  2.0200000000000E+00  8.4914739445608E-07 -1.9025997422867E-05
204  2.03 -0.  0.
205  2.04 -0.  0.
206  2.05 -0.  0.
207  2.06  0.  0.
208  2.07  0.  0.
209  2.08  0.  0.
210  2.09  0.  0.
211  2.10  0.  0.
212  2.11  0.  0.
213  2.12  0.  0.
214  2.13  0.  0.
215  2.14  0.  0.
216  2.15  0.  0.
217  2.16  0.  0.
218  2.17  0.  0.
219  2.18  0.  0.
220  2.19  0.  0.
221  2.20  0.  0.
222  2.21  0.  0.
223  2.22  0.  0.
224  2.23  0.  0.
225  2.24  0.  0.
226  2.25  0.  0.
227  2.26  0.  0.
228  2.27  0.  0.
229  2.28  0.  0.
230  2.29  0.  0.
231  2.30  0.  0.
232  2.31  0.  0.
233  2.32  0.  0.
234  2.33  0.  0.
235  2.34  0.  0.
236  2.35  0.  0.
237  2.36  0.  0.
238  2.37  0.  0.
239  2.38  0.  0.
240  2.39  0.  0.
241  2.40  0.  0.
242  2.41  0.  0.
243  2.42  0.  0.
244  2.43  0.  0.
245  2.44  0.  0.
246  2.45  0.  0.
247  2.46  0.  0.
248  2.47  0.  0.
249  2.48  0.  0.
250  2.49  0.  0.
251  2.50  0.  0.
252  2.51  0.  0.
253  2.52  0.  0.
254  2.53  0.  0.
255  2.54  0.  0.
256  2.55  0.  0.
257  2.56  0.  0.
258  2.57  0.  0.
259  2.58  0.  0.
260  2.59  0.  0.
261  2.60  0.  0.
262  2.61  0.  0.
263  2.62  0.  0.
264  2.63  0.  0.
265  2.64  0.  0.
266  2.65  0.  0.
267  2.66  0.  0.
268  2.67  0.  0.
269  2.68  0.  0.
270  2.69  0.  0.
271  2.70  0.  0.
272  2.71  0.  0.
273  2.72  0.  0.
274  2.73  0.  0.
275  2.74  0.  0.
276  2.75  0.  0.
277  2.76  0.  0.
278  2.77  0.  0.
279  2.78  0.  0.
280  2.79  0.  0.
281  2.80  0.  0.
282  2.81  0.  0.
283  2.82  0.  0.
284  2.83  0.  0.
285  2.84  0.  0.
286  2.85  0.  0.
287  2.86  0.  0.
288  2.87  0.  0.
289  2.88  0.  0.
290  2.89  0.  0.
291  2.90  0.  0.
292  2.91  0.  0.
293  2.92  0.  0.
294  2.93  0.  0.
295  2.94  0.  0.
296  2.95  0.  0.
297  2.96  0.  0.
298  2.97  0.  0.
299  2.98  0.  0.
300  2.99  0.  0.
301  3.00  0.  0.
302  3.01  0.  0.
303  3.02  0.  0.
304  3.03  0.  0.
305  3.04  0.  0.
306  3.05  0.  0.
307  3.06  0.  0.
308  3.07  0.  0.
309  3.08  0.  0.
310  3.09  0.  0.
311  3.10  0.  0.
312  3.11  0.  0.
313  3.12  0.  0.
314  3.13  0.  0.
315  3.14  0.  0.
316  3.15  0.  0.
317  3.16  0.  0.
318  3.17  0.  0.
319  3.18  0.  0.
320  3.19  0.  0.
321  3.20  0.  0.
322  3.21  0.  0.
323  3.22  0.  0.
324  3.23  0.  0.
325  3.24  0.  0.
326  3.25  0.  0.
327  3.26  0.  0.
328  3.27  0.  0.
329  3.28  0.  0.
330  3.29  0.  0.
331  3.30  0.  0.
332  3.31  0.  0.
333  3.32  0.  0.
334  3.33  0.  0.
335  3.34  0.  0.
336  3.35  0.  0.
337  3.36  0.  0.
338  3.37  0.  0.
339  3.38  0.  0.
340  3.39  0.  0.
341  3.40  0.  0.
342  3.41  0.  0.
343  3.42  0.  0.
344  3.43  0.  0.
345  3.44  0.  0.
346  3.45  0.  0.
347  3.46  0.  0.
348  3.47  0.  0.
349  3.48  0.  0.
350  3.49  0.  0.
351  3.50  0.  0.
352  3.51  0.  0.
353  3.52  0.  0.
354  3.53  0.  0.
355  3.54  0.  0.
356  3.55  0.  0.
357  3.56  0.  0.
358  3.57  0.  0.
359  3.58  0.  0.
360  3.59  0.  0.
361  3.60  0.  0.
362  3.61  0.  0.
363  3.62  0.  0.
364  3.63  0.  0.
365  3.64  0.  0.
366  3.65  0.  0.
367  3.66  0.  0.
368  3.67  0.  0.
369  3.68  0.  0.
370  3.69  0.  0.
371  3.70  0.  0.
372  3.71  0.  0.
373  3.72  0.  0.
374  3.73  0.  0.
375  3.74  0.  0.
376  3.75  0.  0.
377  3.76  0.  0.
378  3.77  0.  0.
379  3.78  0.  0.
380  3.79  0.  0.
381  3.80  0.  0.
382  3.81  0.  0.
383  3.82  0.  0.
384  3.83  0.  0.
385  3.84  0.  0.
386  3.85  0.  0.
387  3.86  0.  0.
388  3.87  0.  0.
389  3.88  0.  0.
390  3.89  0.  0.
391  3.90  0.  0.
392  3.91  0.  0.
393  3.92  0.  0.
394  3.93  0.  0.
395  3.94  0.  0.
396  3.95  0.  0.
397  3.96  0.  0.
398  3.97  0.  0.
399  3.98  0.  0.
400  3.99  0.  0.
401  4.00  0.  0.
402  4.01  0.  0.
403  4.02  0.  0.
404  4.03  0.  0.
405  4.04  0.  0.
406  4.05  0.  0.
407  4.06  0.  0.
408  4.07  0.  0.
409  4.08  0.  0.
410  4.09  0.  0.
411  4.10  0.  0.
412  4.11  0.  0.
413  4.12  0.  0.
414  4.13  0.  0.
415  4.14  0.  0.
416  4.15  0.  0.
417  4.16  0.  0.
418  4.17  0.  0.
419  4.18  0.  0.
420  4.19  0.  0.
421  4.20  0.  0.
422  4.21  0.  0.
423  4.22  0.  0.
424  4.23  0.  0.
425  4.24  0.  0.
426  4.25  0.  0.
427  4.26  0.  0.
428  4.27  0.  0.
429  4.28  0.  0.
430  4.29  0.  0.
431  4.30  0.  0.
432  4.31  0.  0.
433  4.32  0.  0.
434  4.33  0.  0.
435  4.34  0.  0.
436  4.35  0.  0.
437  4.36  0.  0.
438  4.37  0.  0.
439  4.38  0.  0.
440  4.39  0.  0.
441  4.40  0.  0.
442  4.41  0.  0.
443  4.42  0.  0.
444  4.43  0.  0.
445  4.44  0.  0.
446  4.45  0.  0.
447  4.46  0.  0.
448  4.47  0.  0.
449  4.48  0.  0.
450  4.49  0.  0.
451  4.50  0.  0.
452  4.51  0.  0.
453  4.52  0.  0.
454  4.53  0.  0.
455  4.54  0.  0.
456  4.55  0.  0.
457  4.56  0.  0.
458  4.57  0.  0.
459  4.58  0.  0.
460  4.59  0.  0.
461  4.60  0.  0.
462  4.61  0.  0.
463  4.62  0.  0.
464  4.63  0.  0.
465  4.64  0.  0.
466  4.65  0.  0.
467  4.66  0.  0.
468  4.67  0.  0.
469  4.68  0.  0.
470  4.69  0.  0.
471  4.70  0.  0.
472  4.71  0.  0.
473  4.72  0.  0.
474  4.73  0.  0.
475  4.74  0.  0.
476  4.75  0.  0.
477  4.76  0.  0.
478  4.77  0.  0.
479  4.78  0.  0.
480  4.79  0.  0.
481  4.80  0.  0.
482  4.81  0.  0.
483  4.82  0.  0.
484  4.83  0.  0.
485  4.84  0.  0.
486  4.85  0.  0.
487  4.86  0.  0.
488  4.87  0.  0.
489  4.88  0.  0.
490  4.89  0.  0.
491  4.90  0.  0.
492  4.91  0.  0.
493  4.92  0.  0.
494  4.93  0.  0.
495  4.94  0.  0.
496  4.95  0.  0.
497  4.96  0.  0.
498  4.97  0.  0.
499  4.98  0.  0.
500  4.99  0.  0.
501  5.00  0.  0.
502  5.01  0.  0.
503  5.02  0.  0.
504  5.03  0.  0.
505  5.04  0.  0.
506  5.05  0.  0.
507  5.06  0.  0.
508  5.07  0.  0.
509  5.08  0.  0.
510  5.09  0.  0.
511  5.10  0.  0.
512  5.11  0.  0.
513  5.12  0.  0.
514  5.13  0.  0.
515  5.14  0.  0.
516  5.15  0.  0.
517  5.16  0.  0.
518  5.17  0.  0.
519  5.18  0.  0.
520  5.19  0.  0.
521  5.20  0.  0.
522  5.21  0.  0.
523  5.22  0.  0.
524  5.23  0.  0.
525  5.24  0.  0.
526  5.25  0.  0.
527  5.26  0.  0.
528  5.27  0.  0.
529  5.28  0.  0.
530  5.29  0.  0.
531  5.30  0.  0.
532  5.31  0.  0.
533  5.32  0.  0.
534  5.33  0.  0.
535  5.34  0.  0.
536  5.35  0.  0.
537  5.36  0.  0.
538  5.37  0.  0.
539  5.38  0.  0.
540  5.39  0.  0.
541  5.40  0.  0.
542  5.41  0.  0.
543  5.42  0.  0.
544  5.43  0.  0.
545  5.44  0.  0.
546  5.45  0.  0.
547  5.46  0.  0.
548  5.47  0.  0.
549  5.48  0.  0.
550  5.49  0.  0.
551  5.50  0.  0.
552  5.51  0.  0.
553  5.52  0.  0.
554  5.53  0.  0.
555  5.54  0.  0.
556  5.55  0.  0.
557  5.56  0.  0.
558  5.57  0.  0.
559  5.58  0.  0.
560  5.59  0.  0.
561  5.60  0.  0.
562  5.61  0.  0.
563  5.62  0.  0.
564  5.63  0.  0.
565  5.64  0.  0.
566  5.65  0.  0.
567  5.66  0.  0.
568  5.67  0.  0.
569  5.68  0.  0.
570  5.69  0.  0.
571  5.70  0.  0.
572  5.71  0.  0.
573  5.72  0.  0.
574  5.73  0.  0.
575  5.74  0.  0.
576  5.75  0.  0.
577  5.76  0.  0.
578  5.77  0.  0.
579  5.78  0.  0.
580  5.79  0.  0.
581  5.80  0.  0.
582  5.81  0.  0.
583  5.82  0.  0.
584  5.83  0.  0.
585  5.84  0.  0.
586  5.85  0.  0.
587  5.86  0.  0.
588  5.87  0.  0.
589  5.88  0.  0.
590  5.89  0.  0.
591  5.90  0.  0.
592  5.91  0.  0.
593  5.92  0.  0.
594  5.93  0.  0.
595  5.94  0.  0.
596  5.95  0.  0.
597  5.96  0.  0.
598  5.97  0.  0.
599  5.98  0.  0.
600  5.99  0.  0.
1                         4.7538980790886E+00  5.7186113828009E-01
1  0.0000000000000E+00  1.0592376475937E-08 -5.7639129941167E-08
2  1.0000000000000E-02  1.3810205458158E-03 -3.1997961560224E-03
3  2.0000000000000E-02  5.5075685077602E-03 -1.2717091132582E-02
4  3.0000000000000E-02  1.2330418289968E-02 -2.8307319650977E-02
5  4.0000000000000E-02  2.1768572426217E-02 -4.9568556310902E-02
6  5.0000000000000E-02  3.3710807644875E-02 -7.5949922615082E-02
7  6.0000000000000E-02  4.8017796342471E-02 -1.0676312299839E-01
8  7.0000000000000E-02  6.4524761451854E-02 -1.4119688146844E-01
9  8.0000000000000E-02  8.3044612098516E-02 -1.7833399282564E-01
10  9.0000000000000E-02  1.0337149786821E-01 -2.1717065030565E-01
11  1.0000000000000E-01  1.2528471114701E-01 -2.5663766588533E-01
12  1.1000000000000E-01  1.4855286000522E-01 -2.9562316129987E-01
13  1.2000000000000E-01  1.7293822861697E-01 -3.3299627777958E-01
14  1.3000000000000E-01  1.9820123834618E-01 -3.6763143122153E-01
15  1.4000000000000E-01  2.2410492046548E-01 -3.9843262738826E-01
16  1.5000000000000E-01  2.5041931105290E-01 -4.2435734902491E-01
17  1.6000000000000E-01  2.7692567994310E-01 -4.4443953357907E-01
18  1.7000000000000E-01  3.0342050867620E-01 -4.5781117638580E-01
19  1.8000000000000E-01  3.2971913713006E-01 -4.6372211945561E-01
20  1.9000000000000E-01  3.5565900485721E-01 -4.6155761991328E-01
21  2.0000000000000E-01  3.8110242095495E-01 -4.5085333405291E-01
22  2.1000000000000E-01  4.0593880543171E-01 -4.3130740211730E-01
23  2.2000000000000E-01  4.3008635532089E-01 -4.0278937435495E-01
24  2.3000000000000E-01  4.5349310004088E-01 -3.6534577961144E-01
25  2.4000000000000E-01  4.7613732249162E-01 -3.1920220252483E-01
26  2.5000000000000E-01  4.9802733488499E-01 -2.6476180308618E-01
27  2.6000000000000E-01  5.1920061108858E-01 -2.0260028160672E-01
28  2.7000000000000E-01  5.3972229007301E-01 -1.3345736167778E-01
29  2.8000000000000E-01  5.5968307764428E-01 -5.8224932183897E-02
30  2.9000000000000E-01  5.7919658577016E-01  2.2067944487546E-02
31  3.0000000000000E-01  5.9839616023503E-01  1.0627288848223E-01
32  3.1000000000000E-01  6.1743125785804E-01  1.9314259567441E-01
33  3.2000000000000E-01  6.3646344387442E-01  2.8135338941886E-01
34  3.3000000000000E-01  6.5566208812453E-01  3.6952950777033E-01
35  3.4000000000000E-01  6.7519984525378E-01  4.5626866651317E-01
36  3.5000000000000E-01  6.9524800906615E-01  5.4016841043839E-01
37  3.6000000000000E-01  7.1597183438724E-01  6.1985274664000E-01
38  3.7000000000000E-01  7.3752592120814E-01  6.9399854458876E-01
39  3.8000000000000E-01  7.6004975545931E-01  7.6136118860315E-01
40  3.9000000000000E-01  7.8366349850126E-01  8.2079897911528E-01
41  4.0000000000000E-01  8.0846411334590E-01  8.7129579967410E-01
42  4.1000000000000E-01  8.3452190980690E-01  9.1198159660473E-01
43  4.2000000000000E-01  8.6187758331811E-01  9.4215025713274E-01
44  4.3000000000000E-01  8.9053981318791E-01  9.6127451889772E-01
45  4.4000000000000E-01  9.2048347573743E-01  9.6901759827012E-01
46  4.5000000000000E-01  9.5164851628867E-01  9.6524128575393E-01
47  4.6000000000000E-01  9.8393951153853E-01  9.5001032288363E-01
48  4.7000000000000E-01  1.0172259407073E+00  9.2359294517451E-01
49  4.8000000000000E-01  1.0513431702325E+00  8.8645754855043E-01
50  4.9000000000000E-01  1.0860941429506E+00  8.3926551087500E-01
51  5.0000000000000E-01  1.1212517489290E+00  7.8286027434518E-01
52  5.1000000000000E-01  1.1565618416515E+00  7.1825286715307E-01
53  5.2000000000000E-01  1.1917468503739E+00  6.4660411258513E-01
54  5.3000000000000E-01  1.2265099274115E+00  5.6920383925695E-01
55  5.4000000000000E-01  1.2605395581276E+00  4.8744746619496E-01
56  5.5000000000000E-01  1.2935145516921E+00  4.0281038979079E-01
57  5.6000000000000E-01  1.3251093224486E+00  3.1682064520324E-01
58  5.7000000000000E-01  1.3549993651651E+00  2.3103035164337E-01
59  5.8000000000000E-01  1.3828668226538E+00  1.4698647838336E-01
60  5.9000000000000E-01  1.4084060413672E+00  6.6201485687713E-02
61  6.0000000000000E-01  1.4313290096579E+00 -9.8755982281770E-03
62  6.1000000000000E-01  1.4513705744777E+00 -7.9887106861935E-02
63  6.2000000000000E-01  1.4682933353757E+00 -1.4259312878405E-01
64  6.3000000000000E-01  1.4818921196974E+00 -1.9689584666471E-01
65  6.4000000000000E-01  1.4919979498059E+00 -2.4186133891527E-01
66  6.5000000000000E-01  1.4984814218279E+00 -2.7673840535626E-01
67  6.6000000000000E-01  1.5012554257194E+00 -3.0097403150396E-01
68  6.7000000000000E-01  1.5002771481683E+00 -3.1422516701357E-01
69  6.8000000000000E-01  1.4955493127926E+00 -3.1636656143158E-01
70  6.9000000000000E-01  1.4871206260139E+00 -3.0749447345663E-01
71  7.0000000000000E-01  1.4750854116376E+00 -2.8792614703562E-01
72  7.1000000000000E-01  1.4595824322750E+00 -2.5819502740143E-01
73  7.2000000000000E-01  1.4407929110157E+00 -2.1904177108534E-01
74  7.3000000000000E-01  1.4189377819175E+00 -1.7140118448680E-01
75  7.4000000000000E-01  1.3942742126317E+00 -1.1638530422297E-01
76  7.5000000000000E-01  1.3670914565409E+00 -5.5262907693204E-02
77  7.6000000000000E-01  1.3377061048894E+00  1.0564187363054E-02
78  7.7000000000000E-01  1.3064568212618E+00  7.9587611445994E-02
79  7.8000000000000E-01  1.2736986511967E+00  1.5022124056472E-01
80  7.9000000000000E-01  1.2397970084840E+00  2.2083177481229E-01
81  8.0000000000000E-01  1.2051214466153E+00  2.8977053254330E-01
82  8.1000000000000E-01  1.1700393287930E+00  3.5540586654740E-01
83  8.2000000000000E-01  1.1349095127374E+00  4.1615559173005E-01
84  8.3000000000000E-01  1.1000761672012E+00  4.7051880835171E-01
85  8.4000000000000E-01  1.0658628355750E+00  5.1710651102429E-01
86  8.5000000000000E-01  1.0325668582533E+00  5.5467039138715E-01
87  8.6000000000000E-01  1.0004542595942E+00  5.8212927143038E-01
88  8.7000000000000E-01  9.6975519742275E-01  5.9859264432990E-01
89  8.8000000000000E-01  9.4066006325597E-01  6.0338084972830E-01
90  8.9000000000000E-01  9.1331630991637E-01  5.9604146975979E-01
91  9.0000000000000E-01  8.8782607016802E-01  5.7636159971811E-01
92  9.1000000000000E-01  8.6424461568898E-01  5.4437572187875E-01
93  9.2000000000000E-01  8.4257969034323E-01  5.0036899125007E-01
94  9.3000000000000E-01  8.2279173562178E-01  4.4487582646532E-01
95  9.4000000000000E-01  8.0479500958421E-01  3.7867378605860E-01
96  9.5000000000000E-01  7.8845958395515E-01  3.0277279839334E-01
97  9.6000000000000E-01  7.7361418753199E-01  2.1839990085329E-01
98  9.7000000000000E-01  7.6004984805131E-01  1.2697972892704E-01
99  9.8000000000000E-01  7.4752426944492E-01  3.0111076911376E-02
100  9.9000000000000E-01  7.3576686729034E-01 -7.0460072460701E-02
101  1.0000000000000E+00  7.2448437248237E-01 -1.7287058346140E-01
102  1.0100000000000E+00  7.1336690198867E-01 -2.7517274148303E-01
103  1.0200000000000E+00  7.0209438620916E-01 -3.7536878846048E-01
104  1.0300000000000E+00  6.9034323512226E-01 -4.7144680168743E-01
105  1.0400000000000E+00  6.7779312022484E-01 -5.6141726882972E-01
106  1.0500000000000E+00  6.6413374636029E-01 -6.4334969450380E-01
107  1.0600000000000E+00  6.4907148694350E-01 -7.1540856855244E-01
108  1.0700000000000E+00  6.3233575786526E-01 -7.7588803333329E-01
109  1.0800000000000E+00  6.1368500944458E-01 -8.2324460672131E-01
110  1.0900000000000E+00  5.9291222217025E-01 -8.5612734901041E-01
111  1.1000000000000E+00  5.6984980046413E-01 -8.7340490464232E-01
112  1.1100000000000E+00  5.4437376922443E-01 -8.7418890327243E-01
113  1.1200000000000E+00  5.1640719021452E-01 -8.5785326781766E-01
114  1.1300000000000E+00  4.8592272927820E-01 -8.2404904892182E-01
115  1.1400000000000E+00  4.5294432060053E-01 -7.7271448426437E-01
116  1.1500000000000E+00  4.1754789052772E-01 -7.0408006593564E-01
117  1.1600000000000E+00  3.7986112050600E-01 -6.1866848813641E-01
118  1.1700000000000E+00  3.4006224619512E-01 -5.1728943915267E-01
119  1.1800000000000E+00  2.9837790739080E-01 -4.0102929399912E-01
120  1.1900000000000E+00  2.5508008082584E-01 -2.7123585613140E-01
121  1.2000000000000E+00  2.1048214471392E-01 -1.2949838558812E-01
122  1.2100000000000E+00  1.6493413999263E-01  2.2376763472103E-02
123  1.2200000000000E+00  1.1881730802021E-01  1.8239449376426E-01
124  1.2300000000000E+00  7.2537997989085E-02  3.4840282966729E-01
125  1.2400000000000E+00  2.6521049091861E-02  5.1812775724361E-01
126  1.2500000000000E+00 -1.8797237634491E-02  6.8921044670299E-01
127  1.2600000000000E+00 -6.2976414986250E-02  8.5924622060899E-01
128  1.2700000000000E+00 -1.0557936439200E-01  1.0258245989354E+00
129  1.2800000000000E+00 -1.4617979809998E-01  1.1865697315717E+00
130  1.2900000000000E+00 -1.8436965607958E-01  1.3391805207270E+00
131  1.3000000000000E+00 -2.1976626641352E-01  1.4814697399503E+00
132  1.3100000000000E+00 -2.5201914174289E-01  1.6114014728706E+00
133  1.3200000000000E+00 -2.8081629043933E-01  1.7271262232499E+00
134  1.3300000000000E+00 -3.0588992944529E-01  1.8270130876843E+00