Pm    ONCVPSP-4.0.1  r_core=   2.00379   1.60593   1.91015   1.35016
61.0000     15.0000      241015    zatom,zion,pspd
8      11   3     4   600     0    pspcod,pspxc,lmax,lloc,mmax,r2well
5.99000000  4.00000000  0.00000000    rchrg fchrg qchrg
3     2     2     2     0    nproj
1     1           extension_switch
0                         1.1843485192556E+01  2.1487527987944E+00  3.4089226612228E-01
1  0.0000000000000E+00 -2.7287649917440E-10  9.0048646317342E-10 -2.1594772914302E-09
2  1.0000000000000E-02  3.5782543644702E-02 -1.3134033138512E-02  3.1706314314715E-02
3  2.0000000000000E-02  7.1530652798138E-02 -2.6149134753204E-02  6.3064578354643E-02
4  3.0000000000000E-02  1.0721021787935E-01 -3.8927886120478E-02  9.3730966346673E-02
5  4.0000000000000E-02  1.4278777384288E-01 -5.1355874614491E-02  1.2337005188298E-01
6  5.0000000000000E-02  1.7823080930389E-01 -6.3323148230629E-02  1.5165888406251E-01
7  6.0000000000000E-02  2.1350806008797E-01 -7.4725612523604E-02  1.7829091692854E-01
8  7.0000000000000E-02  2.4858978233749E-01 -8.5466351832414E-02  2.0297974585868E-01
9  8.0000000000000E-02  2.8344800057953E-01 -9.5456857564913E-02  2.2546260672343E-01
10  9.0000000000000E-02  3.1805672649457E-01 -1.0461814742026E-01  2.4550359628298E-01
11  1.0000000000000E-01  3.5239214451914E-01 -1.1288176072917E-01  2.6289657541905E-01
12  1.1000000000000E-01  3.8643276086164E-01 -1.2019061657130E-01  2.7746772035721E-01
13  1.2000000000000E-01  4.2015951300629E-01 -1.2649972297413E-01  2.8907769099852E-01
14  1.3000000000000E-01  4.5355583731756E-01 -1.3177672728592E-01  2.9762338979328E-01
15  1.4000000000000E-01  4.8660769293157E-01 -1.3600229973171E-01  3.0303928922315E-01
16  1.5000000000000E-01  5.1930354072414E-01 -1.3917034417856E-01  3.0529831084591E-01
17  1.6000000000000E-01  5.5163427677045E-01 -1.4128803223780E-01  3.0441224396128E-01
18  1.7000000000000E-01  5.8359312035125E-01 -1.4237565898963E-01  3.0043169721259E-01
19  1.8000000000000E-01  6.1517545720730E-01 -1.4246632080705E-01  2.9344558179644E-01
20  1.9000000000000E-01  6.4637863938889E-01 -1.4160541795527E-01  2.8358013034702E-01
21  2.0000000000000E-01  6.7720174368397E-01 -1.3984998682631E-01  2.7099746094342E-01
22  2.1000000000000E-01  7.0764529122715E-01 -1.3726786880772E-01  2.5589370098639E-01
23  2.2000000000000E-01  7.3771093148614E-01 -1.3393672485830E-01  2.3849669085746E-01
24  2.3000000000000E-01  7.6740109438353E-01 -1.2994290684391E-01  2.1906329224262E-01
25  2.4000000000000E-01  7.9671861483317E-01 -1.2538019855288E-01  1.9787633072345E-01
26  2.5000000000000E-01  8.2566633444452E-01 -1.2034844103722E-01  1.7524120665334E-01
27  2.6000000000000E-01  8.5424668556920E-01 -1.1495205849350E-01  1.5148221239437E-01
28  2.7000000000000E-01  8.8246126322533E-01 -1.0929850228710E-01  1.2693859764884E-01
29  2.8000000000000E-01  9.1031039073104E-01 -1.0349663191386E-01  1.0196042782305E-01
30  2.9000000000000E-01  9.3779268510594E-01 -9.7655052672657E-02  7.6904283083378E-02
31  3.0000000000000E-01  9.6490462845216E-01 -9.1880430574904E-02  5.2128847960949E-02
32  3.1000000000000E-01  9.9164015160382E-01 -8.6275805530731E-02  2.7990443006157E-02
33  3.2000000000000E-01  1.0179902363319E+00 -8.0938924121832E-02  4.8385510672957E-03
34  3.3000000000000E-01  1.0439425423096E+00 -7.5960613286134E-02 -1.6988608757264E-02
35  3.4000000000000E-01  1.0694810648813E+00 -7.1423216002194E-02 -3.7168406568622E-02
36  3.5000000000000E-01  1.0945858294368E+00 -6.7399109567638E-02 -5.5397974329104E-02
37  3.6000000000000E-01  1.1192326278721E+00 -6.3949326322164E-02 -7.1398174884653E-02
38  3.7000000000000E-01  1.1433928022228E+00 -6.1122295671838E-02 -8.4917318440445E-02
39  3.8000000000000E-01  1.1670330800903E+00 -5.8952725047298E-02 -9.5734580091554E-02
40  3.9000000000000E-01  1.1901154659431E+00 -5.7460635970605E-02 -1.0366307509845E-01
41  4.0000000000000E-01  1.2125971917822E+00 -5.6650569744838E-02 -1.0855255219486E-01
42  4.1000000000000E-01  1.2344307300055E+00 -5.6510975421467E-02 -1.1029166932014E-01
43  4.2000000000000E-01  1.2555638706026E+00 -5.7013790669271E-02 -1.0880982071969E-01
44  4.3000000000000E-01  1.2759398640740E+00 -5.8114223987589E-02 -1.0407848931101E-01
45  4.4000000000000E-01  1.2954976306889E+00 -5.9750744398197E-02 -9.6112103518014E-02
46  4.5000000000000E-01  1.3141720358996E+00 -6.1845282338988E-02 -8.4968383380994E-02
47  4.6000000000000E-01  1.3318942309207E+00 -6.4303643003677E-02 -7.0748166574135E-02
48  4.7000000000000E-01  1.3485920566592E+00 -6.7016130844262E-02 -5.3594710964873E-02
49  4.8000000000000E-01  1.3641905083770E+00 -6.9858381415648E-02 -3.3692476442254E-02
50  4.9000000000000E-01  1.3786122576706E+00 -7.2692394221990E-02 -1.1265394860833E-02
51  5.0000000000000E-01  1.3917782275850E+00 -7.5367757749203E-02  1.3425356968559E-02
52  5.1000000000000E-01  1.4036082159480E+00 -7.7723055478342E-02  4.0084060356498E-02
53  5.2000000000000E-01  1.4140215613283E+00 -7.9587439387150E-02  6.8383607212810E-02
54  5.3000000000000E-01  1.4229378453889E+00 -8.0782355307351E-02  9.7969069751899E-02
55  5.4000000000000E-01  1.4302776248463E+00 -8.1123402521351E-02  1.2846165004906E-01
56  5.5000000000000E-01  1.4359631857530E+00 -8.0422308203196E-02  1.5946296728462E-01
57  5.6000000000000E-01  1.4399193124120E+00 -7.8488995737574E-02  1.9055963615750E-01
58  5.7000000000000E-01  1.4420740629083E+00 -7.5133724625466E-02  2.2132808611671E-01
59  5.8000000000000E-01  1.4423595430114E+00 -7.0169278613089E-02  2.5133956777462E-01
60  5.9000000000000E-01  1.4407126700704E+00 -6.3413177886741E-02  2.8016529019300E-01
61  6.0000000000000E-01  1.4370759184912E+00 -5.4689890668600E-02  3.0738163070004E-01
62  6.1000000000000E-01  1.4313980384535E+00 -4.3833019332193E-02  3.3257535752489E-01
63  6.2000000000000E-01  1.4236347397008E+00 -3.0687436248536E-02  3.5534880487421E-01
64  6.3000000000000E-01  1.4137493325114E+00 -1.5111344961793E-02  3.7532494010453E-01
65  6.4000000000000E-01  1.4017133183350E+00  3.0217570161207E-03  3.9215226339126E-01
66  6.5000000000000E-01  1.3875069230555E+00  2.3821236517958E-02  4.0550948175205E-01
67  6.6000000000000E-01  1.3711195664029E+00  4.7377625604765E-02  4.1510990142087E-01
68  6.7000000000000E-01  1.3525502616955E+00  7.3761084948318E-02  4.2070548539657E-01
69  6.8000000000000E-01  1.3318079408199E+00  1.0302004786297E-01  4.2209052643826E-01
70  6.9000000000000E-01  1.3089117001611E+00  1.3518006112841E-01  4.1910488984186E-01
71  7.0000000000000E-01  1.2838909640561E+00  1.7024283653595E-01  4.1163678494545E-01
72  7.1000000000000E-01  1.2567855632556E+00  2.0818552471331E-01  3.9962502941423E-01
73  7.2000000000000E-01  1.2276457268267E+00  2.4896022026121E-01  3.8306077590419E-01
74  7.3000000000000E-01  1.1965319869055E+00  2.9249370460838E-01  3.6198867661582E-01
75  7.4000000000000E-01  1.1635149966924E+00  3.3868743029405E-01  3.3650746745696E-01
76  7.5000000000000E-01  1.1286752630692E+00  3.8741774765675E-01  3.0676995995704E-01
77  7.6000000000000E-01  1.0921027961852E+00  4.3853637217813E-01  2.7298243564587E-01
78  7.7000000000000E-01  1.0538966793014E+00  4.9187108804741E-01  2.3540344422620E-01
79  7.8000000000000E-01  1.0141645630779E+00  5.4722668090762E-01  1.9434201346339E-01
80  7.9000000000000E-01  9.7302208933272E-01  6.0438609025209E-01  1.5015528521300E-01
81  8.0000000000000E-01  9.3059225007377E-01  6.6311176960742E-01  1.0324559830027E-01
82  8.1000000000000E-01  8.8700468829903E-01  7.2314724048406E-01  5.4057045011589E-02
83  8.2000000000000E-01  8.4239494766252E-01  7.8421882414006E-01  3.0715336633137E-03
84  8.3000000000000E-01  7.9690367860632E-01  8.4603753350815E-01 -4.9195604981328E-02
85  8.4000000000000E-01  7.5067580895281E-01  9.0830110620665E-01 -1.0220042482734E-01
86  8.5000000000000E-01  7.0385968723023E-01  9.7069615840730E-01 -1.5537553813689E-01
87  8.6000000000000E-01  6.5660620716482E-01  1.0329004384831E+00 -2.0813560504590E-01
88  8.7000000000000E-01  6.0906792180929E-01  1.0945851588166E+00 -2.5988308496398E-01
89  8.8000000000000E-01  5.6139815569236E-01  1.1554173839102E+00 -3.1001419331159E-01
90  8.9000000000000E-01  5.1375012316591E-01  1.2150624530123E+00 -3.5792500507585E-01
91  9.0000000000000E-01  4.6627606080088E-01  1.2731864158363E+00 -4.0301764530371E-01
92  9.1000000000000E-01  4.1912638124354E-01  1.3294584605999E+00 -4.4470650590735E-01
93  9.2000000000000E-01  3.7244885540194E-01  1.3835533145178E+00 -4.8242442798637E-01
94  9.3000000000000E-01  3.2638782919258E-01  1.4351535980273E+00 -5.1562878927616E-01
95  9.4000000000000E-01  2.8108348035758E-01  1.4839521153704E+00 -5.4380743723974E-01
96  9.5000000000000E-01  2.3667112007230E-01  1.5296540656706E+00 -5.6648440970505E-01
97  9.6000000000000E-01  1.9328054322164E-01  1.5719791602783E+00 -5.8322538674229E-01
98  9.7000000000000E-01  1.5103543034408E-01  1.6106636338762E+00 -5.9364281962752E-01
99  9.8000000000000E-01  1.1005280334840E-01  1.6454621385860E+00 -5.9740068517277E-01
100  9.9000000000000E-01  7.0442536216366E-02  1.6761495120430E+00 -5.9421881635969E-01
101  1.0000000000000E+00  3.2306921035662E-02  1.7025224120689E+00 -5.8387676303274E-01
102  1.0100000000000E+00 -4.2597111152949E-03  1.7244008121053E+00 -5.6621713931762E-01
103  1.0200000000000E+00 -3.9171315666515E-02  1.7416293529341E+00 -5.4114841738287E-01
104  1.0300000000000E+00 -7.2350408347052E-02  1.7540785473546E+00 -5.0864713011649E-01
105  1.0400000000000E+00 -1.0372828973752E-01  1.7616458353586E+00 -4.6875944819555E-01
106  1.0500000000000E+00 -1.3324522349553E-01  1.7642564879211E+00 -4.2160209989865E-01
107  1.0600000000000E+00 -1.6085057146070E-01  1.7618643577546E+00 -3.6736260481748E-01
108  1.0700000000000E+00 -1.8650288898717E-01  1.7544524752504E+00 -3.0629879542952E-01
109  1.0800000000000E+00 -2.1016998382283E-01  1.7420334873312E+00 -2.3873760331867E-01
110  1.0900000000000E+00 -2.3182894165092E-01  1.7246499360646E+00 -1.6507308980457E-01
111  1.1000000000000E+00 -2.5146612102485E-01  1.7023743726546E+00 -8.5763703945711E-02
112  1.1100000000000E+00 -2.6907711986158E-01  1.6753093008556E+00 -1.3287545117187E-03
113  1.1200000000000E+00 -2.8466671492286E-01  1.6435869420071E+00  8.7655913215210E-02
114  1.1300000000000E+00 -2.9824877481161E-01  1.6073688118059E+00  1.8056303982042E-01
115  1.1400000000000E+00 -3.0984614597044E-01  1.5668450967404E+00  2.7671987097316E-01
116  1.1500000000000E+00 -3.1949051000926E-01  1.5222338158796E+00  3.7541486323466E-01
117  1.1600000000000E+00 -3.2722220944993E-01  1.4737797516191E+00  4.7590515628910E-01
118  1.1700000000000E+00 -3.3309003769601E-01  1.4217531311704E+00  5.7742477900388E-01
119  1.1800000000000E+00 -3.3715098777548E-01  1.3664480392573E+00  6.7919354124246E-01
120  1.1900000000000E+00 -3.3946995321703E-01  1.3081805418798E+00  7.8042654406445E-01
121  1.2000000000000E+00 -3.4011937339706E-01  1.2472865013811E+00  8.8034421734937E-01
122  1.2100000000000E+00 -3.3917881490609E-01  1.1841190647402E+00  9.7818276473495E-01
123  1.2200000000000E+00 -3.3673448004463E-01  1.1190458103020E+00  1.0732048607554E+00
124  1.2300000000000E+00 -3.3287863357989E-01  1.0524455435186E+00  1.1647104025185E+00
125  1.2400000000000E+00 -3.2770893950977E-01  9.8470474008768E-01  1.2520470675138E+00
126  1.2500000000000E+00 -3.2132770092789E-01  9.1621364559733E-01  1.3346203690473E+00
127  1.2600000000000E+00 -3.1384099835487E-01  8.4736205511705E-01  1.4119028292502E+00
128  1.2700000000000E+00 -3.0535772524795E-01  7.7853481449024E-01  1.4834418062257E+00
129  1.2800000000000E+00 -2.9598852404388E-01  7.1010710817531E-01  1.5488654143713E+00
130  1.2900000000000E+00 -2.8584463228530E-01  6.4243962716957E-01  1.6078858632279E+00
131  1.3000000000000E+00 -2.7503665632476E-01  5.7587374538230E-01  1.6602994094086E+00
132  1.3100000000000E+00 -2.6367330008534E-01  5.1072687477543E-01  1.7059819656778E+00
133  1.3200000000000E+00 -2.5186008875574E-01  4.4728821986836E-01  1.7448792380458E+00
134  1.3300000000000E+00 -2.3969814227897E-01  3.8581521104438E-01  1.7769900573947E+00
135  1.3400000000000E+00 -2.2728307181778E-01  3.2653096730288E-01  1.8023413659923E+00
136  1.3500000000000E+00 -2.1470409444485E-01  2.6962322097499E-01  1.8209532061045E+00
137  1.3600000000000E+00 -2.0204355062802E-01  2.1524560671534E-01  1.8327981207147E+00
138  1.3700000000000E+00 -1.8937754597544E-01  1.6352487339285E-01  1.8378326369563E+00
139  1.3800000000000E+00 -1.7677672234666E-01  1.1456697711414E-01  1.8360610353899E+00
140  1.3900000000000E+00 -1.6430625437446E-01  6.8457641395241E-02  1.8275412605236E+00
141  1.4000000000000E+00 -1.5202580892479E-01  2.5262559861018E-02  1.8123835140957E+00
142  1.4100000000000E+00 -1.3998954682707E-01 -1.4972250014005E-02  1.7907483852875E+00
143  1.4200000000000E+00 -1.2824616474277E-01 -5.2219946790418E-02  1.7628445450466E+00
144  1.4300000000000E+00 -1.1683897443732E-01 -8.6472228313348E-02  1.7289260592613E+00
145  1.4400000000000E+00 -1.0580601615761E-01 -1.1773857077897E-01  1.6892893448806E+00
146  1.4500000000000E+00 -9.5180202735103E-02 -1.4604535618976E-01  1.6442698032933E+00
147  1.4600000000000E+00 -8.4989490919416E-02 -1.7143490129590E-01  1.5942381680438E+00
148  1.4700000000000E+00 -7.5257076384926E-02 -1.9396440148014E-01  1.5395966057632E+00
149  1.4800000000000E+00 -6.6001608838965E-02 -2.1370480327204E-01  1.4807746114145E+00
150  1.4900000000000E+00 -5.7237423694197E-02 -2.3073961923683E-01  1.4182247398114E+00
151  1.5000000000000E+00 -4.8974786845799E-02 -2.4516369890766E-01  1.3524182163626E+00
152  1.5100000000000E+00 -4.1220149208956E-02 -2.5708196922280E-01  1.2838404704295E+00
153  1.5200000000000E+00 -3.3976407825573E-02 -2.6660815757934E-01  1.2129866344879E+00
154  1.5300000000000E+00 -2.7243170536757E-02 -2.7386351013115E-01  1.1403570517105E+00
155  1.5400000000000E+00 -2.1017021424919E-02 -2.7897551739913E-01  1.0664528338484E+00
156  1.5500000000000E+00 -1.5291784467311E-02 -2.8207665856305E-01  9.9177150983848E-01
157  1.5600000000000E+00 -1.0058783101986E-02 -2.8330317500208E-01  9.1680280364387E-01
158  1.5700000000000E+00 -5.3070936640483E-03 -2.8279388284848E-01  8.4202457824527E-01
159  1.5800000000000E+00 -1.0237909371728E-03 -2.8068903335075E-01  7.6789897991023E-01
160  1.5900000000000E+00  2.8058156528800E-03 -2.7712922887185E-01  6.9486881426154E-01
161  1.6000000000000E+00  6.1979564036051E-03 -2.7225440138450E-01  6.2335418310873E-01
162  1.6100000000000E+00  9.1701871706430E-03 -2.6620285923382E-01  5.5374940743584E-01
163  1.6200000000000E+00  1.1741187321991E-02 -2.5911040693797E-01  4.8642025900322E-01
164  1.6300000000000E+00  1.3930570196634E-02 -2.5110954172512E-01  4.2170151936261E-01
165  1.6400000000000E+00  1.5758706222621E-02 -2.4232872953650E-01  3.5989488192315E-01
166  1.6500000000000E+00  1.7246558609608E-02 -2.3289176215699E-01  3.0126720868699E-01
167  1.6600000000000E+00  1.8415531340047E-02 -2.2291719623089E-01  2.4604915001869E-01
168  1.6700000000000E+00  1.9287329008422E-02 -2.1251787402927E-01  1.9443413230709E-01
169  1.6800000000000E+00  1.9883827885222E-02 -2.0180052490527E-01  1.4657771443321E-01
170  1.6900000000000E+00  2.0226957475490E-02 -1.9086544567648E-01  1.0259731099487E-01
171  1.7000000000000E+00  2.0338591728819E-02 -1.7980625740706E-01  6.2572276649405E-02
172  1.7100000000000E+00  2.0240448988932E-02 -1.6870973544040E-01  2.6544342818791E-02
173  1.7200000000000E+00  1.9953999718156E-02 -1.5765570894845E-01 -5.4816051030299E-03
174  1.7300000000000E+00  1.9500381013726E-02 -1.4671702579088E-01 -3.3536424713241E-02
175  1.7400000000000E+00  1.8900316949857E-02 -1.3595957812830E-01 -5.7685304801206E-02
176  1.7500000000000E+00  1.8174043768518E-02 -1.2544238375972E-01 -7.8026064949111E-02
177  1.7600000000000E+00  1.7341239083777E-02 -1.1521771827885E-01 -9.4687187336737E-02
178  1.7700000000000E+00  1.6420953987864E-02 -1.0533129164079E-01 -1.0782560888639E-01
179  1.7800000000000E+00  1.5431547992712E-02 -9.5822466361047E-02 -1.1762428860580E-01
180  1.7900000000000E+00  1.4390625553843E-02 -8.6724509568721E-02 -1.2428958633908E-01
181  1.8000000000000E+00  1.3314972516906E-02 -7.8064869169075E-02 -1.2804849839704E-01
182  1.8100000000000E+00  1.2220495869088E-02 -6.9865483546833E-02 -1.2914571974696E-01
183  1.8200000000000E+00  1.1122161538105E-02 -6.2143100450677E-02 -1.2784063928808E-01
184  1.8300000000000E+00  1.0033933571656E-02 -5.4909613675131E-02 -1.2440424353695E-01
185  1.8400000000000E+00  8.9687132455162E-03 -4.8172407378949E-02 -1.1911598039419E-01
186  1.8500000000000E+00  7.9382784080618E-03 -4.1934704489318E-02 -1.1226060901201E-01
187  1.8600000000000E+00  6.9532232136496E-03 -3.6195914886958E-02 -1.0412506555086E-01
188  1.8700000000000E+00  6.0229194905129E-03 -3.0952035919196E-02 -9.4995271665938E-02
189  1.8800000000000E+00  5.1552957827757E-03 -2.6195551488237E-02 -8.5153907828240E-02
190  1.8900000000000E+00  4.3572443086865E-03 -2.1917005722801E-02 -7.4875239064841E-02
191  1.9000000000000E+00  3.6340351934656E-03 -1.8103889293846E-02 -6.4424908296758E-02
192  1.9100000000000E+00  2.9800373810398E-03 -1.4716078599735E-02 -5.4102163677998E-02
193  1.9200000000000E+00  2.3720352840427E-03 -1.1668205876861E-02 -4.4269629633925E-02
194  1.9300000000000E+00  1.8195999831784E-03 -8.9656961630166E-03 -3.5105849029581E-02
195  1.9400000000000E+00  1.3340276846396E-03 -6.6215335762196E-03 -2.6754139534045E-02
196  1.9500000000000E+00  9.2237983808867E-04 -4.6405178381961E-03 -1.9349566171656E-02
197  1.9600000000000E+00  5.8874893733750E-04 -3.0229247323362E-03 -1.3011037277518E-02
198  1.9700000000000E+00  3.3403381292242E-04 -1.7642357507768E-03 -7.8420998419211E-03
199  1.9800000000000E+00  1.5575747837495E-04 -8.5419685075155E-04 -3.9247648269101E-03
200  1.9900000000000E+00  4.8148513056061E-05 -2.7751574376318E-04 -1.3213673977327E-03
201  2.0000000000000E+00  4.5656139506877E-06 -2.9187120175516E-05 -1.5039651206559E-04
202  2.0100000000000E+00 -1.5989441442069E-06  9.6111514958945E-06  4.5124808016659E-05
203  2.0200000000000E+00  5.0750660687361E-07 -2.9864480733576E-06 -1.4041441490102E-05
204  2.03 -0.  0.  0.
205  2.04 -0.  0.  0.
206  2.05  0. -0.  0.
207  2.06  0.  0.  0.
208  2.07  0.  0.  0.
209  2.08  0.  0.  0.
210  2.09  0.  0.  0.
211  2.10  0.  0.  0.
212  2.11  0.  0.  0.
213  2.12  0.  0.  0.
214  2.13  0.  0.  0.
215  2.14  0.  0.  0.
216  2.15  0.  0.  0.
217  2.16  0.  0.  0.
218  2.17  0.  0.  0.
219  2.18  0.  0.  0.
220  2.19  0.  0.  0.
221  2.20  0.  0.  0.
222  2.21  0.  0.  0.
223  2.22  0.  0.  0.
224  2.23  0.  0.  0.
225  2.24  0.  0.  0.
226  2.25  0.  0.  0.
227  2.26  0.  0.  0.
228  2.27  0.  0.  0.
229  2.28  0.  0.  0.
230  2.29  0.  0.  0.
231  2.30  0.  0.  0.
232  2.31  0.  0.  0.
233  2.32  0.  0.  0.
234  2.33  0.  0.  0.
235  2.34  0.  0.  0.
236  2.35  0.  0.  0.
237  2.36  0.  0.  0.
238  2.37  0.  0.  0.
239  2.38  0.  0.  0.
240  2.39  0.  0.  0.
241  2.40  0.  0.  0.
242  2.41  0.  0.  0.
243  2.42  0.  0.  0.
244  2.43  0.  0.  0.
245  2.44  0.  0.  0.
246  2.45  0.  0.  0.
247  2.46  0.  0.  0.
248  2.47  0.  0.  0.
249  2.48  0.  0.  0.
250  2.49  0.  0.  0.
251  2.50  0.  0.  0.
252  2.51  0.  0.  0.
253  2.52  0.  0.  0.
254  2.53  0.  0.  0.
255  2.54  0.  0.  0.
256  2.55  0.  0.  0.
257  2.56  0.  0.  0.
258  2.57  0.  0.  0.
259  2.58  0.  0.  0.
260  2.59  0.  0.  0.
261  2.60  0.  0.  0.
262  2.61  0.  0.  0.
263  2.62  0.  0.  0.
264  2.63  0.  0.  0.
265  2.64  0.  0.  0.
266  2.65  0.  0.  0.
267  2.66  0.  0.  0.
268  2.67  0.  0.  0.
269  2.68  0.  0.  0.
270  2.69  0.  0.  0.
271  2.70  0.  0.  0.
272  2.71  0.  0.  0.
273  2.72  0.  0.  0.
274  2.73  0.  0.  0.
275  2.74  0.  0.  0.
276  2.75  0.  0.  0.
277  2.76  0.  0.  0.
278  2.77  0.  0.  0.
279  2.78  0.  0.  0.
280  2.79  0.  0.  0.
281  2.80  0.  0.  0.
282  2.81  0.  0.  0.
283  2.82  0.  0.  0.
284  2.83  0.  0.  0.
285  2.84  0.  0.  0.
286  2.85  0.  0.  0.
287  2.86  0.  0.  0.
288  2.87  0.  0.  0.
289  2.88  0.  0.  0.
290  2.89  0.  0.  0.
291  2.90  0.  0.  0.
292  2.91  0.  0.  0.
293  2.92  0.  0.  0.
294  2.93  0.  0.  0.
295  2.94  0.  0.  0.
296  2.95  0.  0.  0.
297  2.96  0.  0.  0.
298  2.97  0.  0.  0.
299  2.98  0.  0.  0.
300  2.99  0.  0.  0.
301  3.00  0.  0.  0.
302  3.01  0.  0.  0.
303  3.02  0.  0.  0.
304  3.03  0.  0.  0.
305  3.04  0.  0.  0.
306  3.05  0.  0.  0.
307  3.06  0.  0.  0.
308  3.07  0.  0.  0.
309  3.08  0.  0.  0.
310  3.09  0.  0.  0.
311  3.10  0.  0.  0.
312  3.11  0.  0.  0.
313  3.12  0.  0.  0.
314  3.13  0.  0.  0.
315  3.14  0.  0.  0.
316  3.15  0.  0.  0.
317  3.16  0.  0.  0.
318  3.17  0.  0.  0.
319  3.18  0.  0.  0.
320  3.19  0.  0.  0.
321  3.20  0.  0.  0.
322  3.21  0.  0.  0.
323  3.22  0.  0.  0.
324  3.23  0.  0.  0.
325  3.24  0.  0.  0.
326  3.25  0.  0.  0.
327  3.26  0.  0.  0.
328  3.27  0.  0.  0.
329  3.28  0.  0.  0.
330  3.29  0.  0.  0.
331  3.30  0.  0.  0.
332  3.31  0.  0.  0.
333  3.32  0.  0.  0.
334  3.33  0.  0.  0.
335  3.34  0.  0.  0.
336  3.35  0.  0.  0.
337  3.36  0.  0.  0.
338  3.37  0.  0.  0.
339  3.38  0.  0.  0.
340  3.39  0.  0.  0.
341  3.40  0.  0.  0.
342  3.41  0.  0.  0.
343  3.42  0.  0.  0.
344  3.43  0.  0.  0.
345  3.44  0.  0.  0.
346  3.45  0.  0.  0.
347  3.46  0.  0.  0.
348  3.47  0.  0.  0.
349  3.48  0.  0.  0.
350  3.49  0.  0.  0.
351  3.50  0.  0.  0.
352  3.51  0.  0.  0.
353  3.52  0.  0.  0.
354  3.53  0.  0.  0.
355  3.54  0.  0.  0.
356  3.55  0.  0.  0.
357  3.56  0.  0.  0.
358  3.57  0.  0.  0.
359  3.58  0.  0.  0.
360  3.59  0.  0.  0.
361  3.60  0.  0.  0.
362  3.61  0.  0.  0.
363  3.62  0.  0.  0.
364  3.63  0.  0.  0.
365  3.64  0.  0.  0.
366  3.65  0.  0.  0.
367  3.66  0.  0.  0.
368  3.67  0.  0.  0.
369  3.68  0.  0.  0.
370  3.69  0.  0.  0.
371  3.70  0.  0.  0.
372  3.71  0.  0.  0.
373  3.72  0.  0.  0.
374  3.73  0.  0.  0.
375  3.74  0.  0.  0.
376  3.75  0.  0.  0.
377  3.76  0.  0.  0.
378  3.77  0.  0.  0.
379  3.78  0.  0.  0.
380  3.79  0.  0.  0.
381  3.80  0.  0.  0.
382  3.81  0.  0.  0.
383  3.82  0.  0.  0.
384  3.83  0.  0.  0.
385  3.84  0.  0.  0.
386  3.85  0.  0.  0.
387  3.86  0.  0.  0.
388  3.87  0.  0.  0.
389  3.88  0.  0.  0.
390  3.89  0.  0.  0.
391  3.90  0.  0.  0.
392  3.91  0.  0.  0.
393  3.92  0.  0.  0.
394  3.93  0.  0.  0.
395  3.94  0.  0.  0.
396  3.95  0.  0.  0.
397  3.96  0.  0.  0.
398  3.97  0.  0.  0.
399  3.98  0.  0.  0.
400  3.99  0.  0.  0.
401  4.00  0.  0.  0.
402  4.01  0.  0.  0.
403  4.02  0.  0.  0.
404  4.03  0.  0.  0.
405  4.04  0.  0.  0.
406  4.05  0.  0.  0.
407  4.06  0.  0.  0.
408  4.07  0.  0.  0.
409  4.08  0.  0.  0.
410  4.09  0.  0.  0.
411  4.10  0.  0.  0.
412  4.11  0.  0.  0.
413  4.12  0.  0.  0.
414  4.13  0.  0.  0.
415  4.14  0.  0.  0.
416  4.15  0.  0.  0.
417  4.16  0.  0.  0.
418  4.17  0.  0.  0.
419  4.18  0.  0.  0.
420  4.19  0.  0.  0.
421  4.20  0.  0.  0.
422  4.21  0.  0.  0.
423  4.22  0.  0.  0.
424  4.23  0.  0.  0.
425  4.24  0.  0.  0.
426  4.25  0.  0.  0.
427  4.26  0.  0.  0.
428  4.27  0.  0.  0.
429  4.28  0.  0.  0.
430  4.29  0.  0.  0.
431  4.30  0.  0.  0.
432  4.31  0.  0.  0.
433  4.32  0.  0.  0.
434  4.33  0.  0.  0.
435  4.34  0.  0.  0.
436  4.35  0.  0.  0.
437  4.36  0.  0.  0.
438  4.37  0.  0.  0.
439  4.38  0.  0.  0.
440  4.39  0.  0.  0.
441  4.40  0.  0.  0.
442  4.41  0.  0.  0.
443  4.42  0.  0.  0.
444  4.43  0.  0.  0.
445  4.44  0.  0.  0.
446  4.45  0.  0.  0.
447  4.46  0.  0.  0.
448  4.47  0.  0.  0.
449  4.48  0.  0.  0.
450  4.49  0.  0.  0.
451  4.50  0.  0.  0.
452  4.51  0.  0.  0.
453  4.52  0.  0.  0.
454  4.53  0.  0.  0.
455  4.54  0.  0.  0.
456  4.55  0.  0.  0.
457  4.56  0.  0.  0.
458  4.57  0.  0.  0.
459  4.58  0.  0.  0.
460  4.59  0.  0.  0.
461  4.60  0.  0.  0.
462  4.61  0.  0.  0.
463  4.62  0.  0.  0.
464  4.63  0.  0.  0.
465  4.64  0.  0.  0.
466  4.65  0.  0.  0.
467  4.66  0.  0.  0.
468  4.67  0.  0.  0.
469  4.68  0.  0.  0.
470  4.69  0.  0.  0.
471  4.70  0.  0.  0.
472  4.71  0.  0.  0.
473  4.72  0.  0.  0.
474  4.73  0.  0.  0.
475  4.74  0.  0.  0.
476  4.75  0.  0.  0.
477  4.76  0.  0.  0.
478  4.77  0.  0.  0.
479  4.78  0.  0.  0.
480  4.79  0.  0.  0.
481  4.80  0.  0.  0.
482  4.81  0.  0.  0.
483  4.82  0.  0.  0.
484  4.83  0.  0.  0.
485  4.84  0.  0.  0.
486  4.85  0.  0.  0.
487  4.86  0.  0.  0.
488  4.87  0.  0.  0.
489  4.88  0.  0.  0.
490  4.89  0.  0.  0.
491  4.90  0.  0.  0.
492  4.91  0.  0.  0.
493  4.92  0.  0.  0.
494  4.93  0.  0.  0.
495  4.94  0.  0.  0.
496  4.95  0.  0.  0.
497  4.96  0.  0.  0.
498  4.97  0.  0.  0.
499  4.98  0.  0.  0.
500  4.99  0.  0.  0.
501  5.00  0.  0.  0.
502  5.01  0.  0.  0.
503  5.02  0.  0.  0.
504  5.03  0.  0.  0.
505  5.04  0.  0.  0.
506  5.05  0.  0.  0.
507  5.06  0.  0.  0.
508  5.07  0.  0.  0.
509  5.08  0.  0.  0.
510  5.09  0.  0.  0.
511  5.10  0.  0.  0.
512  5.11  0.  0.  0.
513  5.12  0.  0.  0.
514  5.13  0.  0.  0.
515  5.14  0.  0.  0.
516  5.15  0.  0.  0.
517  5.16  0.  0.  0.
518  5.17  0.  0.  0.
519  5.18  0.  0.  0.
520  5.19  0.  0.  0.
521  5.20  0.  0.  0.
522  5.21  0.  0.  0.
523  5.22  0.  0.  0.
524  5.23  0.  0.  0.
525  5.24  0.  0.  0.
526  5.25  0.  0.  0.
527  5.26  0.  0.  0.
528  5.27  0.  0.  0.
529  5.28  0.  0.  0.
530  5.29  0.  0.  0.
531  5.30  0.  0.  0.
532  5.31  0.  0.  0.
533  5.32  0.  0.  0.
534  5.33  0.  0.  0.
535  5.34  0.  0.  0.
536  5.35  0.  0.  0.
537  5.36  0.  0.  0.
538  5.37  0.  0.  0.
539  5.38  0.  0.  0.
540  5.39  0.  0.  0.
541  5.40  0.  0.  0.
542  5.41  0.  0.  0.
543  5.42  0.  0.  0.
544  5.43  0.  0.  0.
545  5.44  0.  0.  0.
546  5.45  0.  0.  0.
547  5.46  0.  0.  0.
548  5.47  0.  0.  0.
549  5.48  0.  0.  0.
550  5.49  0.  0.  0.
551  5.50  0.  0.  0.
552  5.51  0.  0.  0.
553  5.52  0.  0.  0.
554  5.53  0.  0.  0.
555  5.54  0.  0.  0.
556  5.55  0.  0.  0.
557  5.56  0.  0.  0.
558  5.57  0.  0.  0.
559  5.58  0.  0.  0.
560  5.59  0.  0.  0.
561  5.60  0.  0.  0.
562  5.61  0.  0.  0.
563  5.62  0.  0.  0.
564  5.63  0.  0.  0.
565  5.64  0.  0.  0.
566  5.65  0.  0.  0.
567  5.66  0.  0.  0.
568  5.67  0.  0.  0.
569  5.68  0.  0.  0.
570  5.69  0.  0.  0.
571  5.70  0.  0.  0.
572  5.71  0.  0.  0.
573  5.72  0.  0.  0.
574  5.73  0.  0.  0.
575  5.74  0.  0.  0.
576  5.75  0.  0.  0.
577  5.76  0.  0.  0.
578  5.77  0.  0.  0.
579  5.78  0.  0.  0.
580  5.79  0.  0.  0.
581  5.80  0.  0.  0.
582  5.81  0.  0.  0.
583  5.82  0.  0.  0.
584  5.83  0.  0.  0.
585  5.84  0.  0.  0.
586  5.85  0.  0.  0.
587  5.86  0.  0.  0.
588  5.87  0.  0.  0.
589  5.88  0.  0.  0.
590  5.89  0.  0.  0.
591  5.90  0.  0.  0.
592  5.91  0.  0.  0.
593  5.92  0.  0.  0.
594  5.93  0.  0.  0.
595  5.94  0.  0.  0.
596  5.95  0.  0.  0.
597  5.96  0.  0.  0.
598  5.97  0.  0.  0.
599  5.98  0.  0.  0.
600  5.99  0.  0.  0.
1                         6.5806695278646E+00  6.1290385239860E-01
1  0.0000000000000E+00  8.5168393171298E-09 -3.9975105420309E-08
2  1.0000000000000E-02  1.1935734099631E-03 -2.8164482972601E-03
3  2.0000000000000E-02  4.7608263428414E-03 -1.1205561359790E-02
4  3.0000000000000E-02  1.0661612577071E-02 -2.4987853023213E-02
5  4.0000000000000E-02  1.8829868974332E-02 -4.3868187326329E-02
6  5.0000000000000E-02  2.9174868918778E-02 -6.7441708409245E-02
7  6.0000000000000E-02  4.1582942657578E-02 -9.5201980806520E-02
8  7.0000000000000E-02  5.5919630855409E-02 -1.2655118222321E-01
9  8.0000000000000E-02  7.2032229158735E-02 -1.6081215090662E-01
10  9.0000000000000E-02  8.9752673851731E-02 -1.9724205347840E-01
11  1.0000000000000E-01  1.0890071192266E-01 -2.3504740725841E-01
12  1.1000000000000E-01  1.2928729317745E-01 -2.7340016429864E-01
13  1.2000000000000E-01  1.5071811754651E-01 -3.1145454306815E-01
14  1.3000000000000E-01  1.7299726752013E-01 -3.4836427839963E-01
15  1.4000000000000E-01  1.9593085378108E-01 -3.8329995122970E-01
16  1.5000000000000E-01  2.1933060162067E-01 -4.1546605702513E-01
17  1.6000000000000E-01  2.4301730663978E-01 -4.4411747565561E-01
18  1.7000000000000E-01  2.6682409053743E-01 -4.6857501579894E-01
19  1.8000000000000E-01  2.9059939143774E-01 -4.8823972357388E-01
20  1.9000000000000E-01  3.1420962813815E-01 -5.0260566770110E-01
21  2.0000000000000E-01  3.3754148378945E-01 -5.1127094169088E-01
22  2.1000000000000E-01  3.6050376173072E-01 -5.1394665683974E-01
23  2.2000000000000E-01  3.8302877436776E-01 -5.1046373758263E-01
24  2.3000000000000E-01  4.0507323495180E-01 -5.0077737230057E-01
25  2.4000000000000E-01  4.2661863172023E-01 -4.8496901726094E-01
26  2.5000000000000E-01  4.4767107392258E-01 -4.6324589814319E-01
27  2.6000000000000E-01  4.6826060958559E-01 -4.3593800170432E-01
28  2.7000000000000E-01  4.8844002527436E-01 -4.0349259866572E-01
29  2.8000000000000E-01  5.0828314838544E-01 -3.6646638694035E-01
30  2.9000000000000E-01  5.2788268246473E-01 -3.2551539095576E-01
31  3.0000000000000E-01  5.4734761548653E-01 -2.8138279717289E-01
32  3.1000000000000E-01  5.6680024977520E-01 -2.3488494709855E-01
33  3.2000000000000E-01  5.8637291012663E-01 -1.8689574633971E-01
34  3.3000000000000E-01  6.0620439353397E-01 -1.3832978081700E-01
35  3.4000000000000E-01  6.2643622960391E-01 -9.0124458492240E-02
36  3.5000000000000E-01  6.4720882514539E-01 -4.3221516314494E-02
37  3.6000000000000E-01  6.6865756942917E-01  1.4517528984440E-03
38  3.7000000000000E-01  6.9090897818240E-01  4.3001190585036E-02
39  3.8000000000000E-01  7.1407695445562E-01  8.0584015055651E-02
40  3.9000000000000E-01  7.3825924306377E-01  1.1342625759132E-01
41  4.0000000000000E-01  7.6353415237197E-01  1.4083904544681E-01
42  4.1000000000000E-01  7.8995761281232E-01  1.6223340434971E-01
43  4.2000000000000E-01  8.1756063574869E-01  1.7713327869400E-01
44  4.3000000000000E-01  8.4634722924955E-01  1.8518649923793E-01
45  4.4000000000000E-01  8.7629281910602E-01  1.8617346518470E-01
46  4.5000000000000E-01  9.0734321418818E-01  1.8001334939297E-01