Pm    ONCVPSP-4.0.1  r_core=   2.00379   1.60593   1.91015   1.60593
61.0000     15.0000      241206    zatom,zion,pspd
8      11   3     4   600     0    pspcod,pspxc,lmax,lloc,mmax,r2well
5.99000000  4.00000000  0.00000000    rchrg fchrg qchrg
2     2     2     2     0    nproj
1     1           extension_switch
0                         7.0903744327229E+00  4.6073086731299E-01
1  0.0000000000000E+00  6.9243333289393E-11 -3.1197456423770E-10
2  1.0000000000000E-02  3.7932192367571E-02 -4.6870438882974E-03
3  2.0000000000000E-02  7.5850308034723E-02 -9.4156038730720E-03
4  3.0000000000000E-02  1.1374009764169E-01 -1.4226505786377E-02
5  4.0000000000000E-02  1.5158696839513E-01 -1.9159202614738E-02
6  5.0000000000000E-02  1.8937581704647E-01 -2.4251107204698E-02
7  6.0000000000000E-02  2.2709086845486E-01 -2.9536947699182E-02
8  7.0000000000000E-02  2.6471552151445E-01 -3.5048152912004E-02
9  8.0000000000000E-02  3.0223220415630E-01 -4.0812274535920E-02
10  9.0000000000000E-02  3.3962223904988E-01 -4.6852452695396E-02
11  1.0000000000000E-01  3.7686572152870E-01 -5.3186930902889E-02
12  1.1000000000000E-01  4.1394141114922E-01 -5.9828625961248E-02
13  1.2000000000000E-01  4.5082663816424E-01 -6.6784757780165E-02
14  1.3000000000000E-01  4.8749722605136E-01 -7.4056543446923E-02
15  1.4000000000000E-01  5.2392743108614E-01 -8.1638959217760E-02
16  1.5000000000000E-01  5.6008989978876E-01 -8.9520573382331E-02
17  1.6000000000000E-01  5.9595564490486E-01 -9.7683452207489E-02
18  1.7000000000000E-01  6.3149404040642E-01 -1.0610314039537E-01
19  1.8000000000000E-01  6.6667283581917E-01 -1.1474871670229E-01
20  1.9000000000000E-01  7.0145819000076E-01 -1.2358292456755E-01
21  2.0000000000000E-01  7.3581472431017E-01 -1.3256237680268E-01
22  2.1000000000000E-01  7.6970559492606E-01 -1.4163783260015E-01
23  2.2000000000000E-01  8.0309258389024E-01 -1.5075454434469E-01
24  2.3000000000000E-01  8.3593620827585E-01 -1.5985267095764E-01
25  2.4000000000000E-01  8.6819584670815E-01 -1.6886775378277E-01
26  2.5000000000000E-01  8.9982988230108E-01 -1.7773125033957E-01
27  2.6000000000000E-01  9.3079586091766E-01 -1.8637112063238E-01
28  2.7000000000000E-01  9.6105066351629E-01 -1.9471246011919E-01
29  2.8000000000000E-01  9.9055069121115E-01 -2.0267817291854E-01
30  2.9000000000000E-01  1.0192520615539E+00 -2.1018967837095E-01
31  3.0000000000000E-01  1.0471108144363E+00 -2.1716764368024E-01
32  3.1000000000000E-01  1.0740831259214E+00 -2.2353273504180E-01
33  3.2000000000000E-01  1.1001255282348E+00 -2.2920637942479E-01
34  3.3000000000000E-01  1.1251951340859E+00 -2.3411152901566E-01
35  3.4000000000000E-01  1.1492498634488E+00 -2.3817342025278E-01
36  3.5000000000000E-01  1.1722486709057E+00 -2.4132031938920E-01
37  3.6000000000000E-01  1.1941517716473E+00 -2.4348424661070E-01
38  3.7000000000000E-01  1.2149208642364E+00 -2.4460167091184E-01
39  3.8000000000000E-01  1.2345193482687E+00 -2.4461416818916E-01
40  3.9000000000000E-01  1.2529125351082E+00 -2.4346903534859E-01
41  4.0000000000000E-01  1.2700678499390E+00 -2.4111985363900E-01
42  4.1000000000000E-01  1.2859550234517E+00 -2.3752699491198E-01
43  4.2000000000000E-01  1.3005462715785E+00 -2.3265806506575E-01
44  4.3000000000000E-01  1.3138164617976E+00 -2.2648827955149E-01
45  4.4000000000000E-01  1.3257432646504E+00 -2.1900076649955E-01
46  4.5000000000000E-01  1.3363072892505E+00 -2.1018679375203E-01
47  4.6000000000000E-01  1.3454922017050E+00 -2.0004591686164E-01
48  4.7000000000000E-01  1.3532848255285E+00 -1.8858604592607E-01
49  4.8000000000000E-01  1.3596752232877E+00 -1.7582342996335E-01
50  4.9000000000000E-01  1.3646567588875E+00 -1.6178255839094E-01
51  5.0000000000000E-01  1.3682261400807E+00 -1.4649598003671E-01
52  5.1000000000000E-01  1.3703834409612E+00 -1.3000404097928E-01
53  5.2000000000000E-01  1.3711321043784E+00 -1.1235454337519E-01
54  5.3000000000000E-01  1.3704789243877E+00 -9.3602328274398E-02
55  5.4000000000000E-01  1.3684340090265E+00 -7.3808786245205E-02
56  5.5000000000000E-01  1.3650107238769E+00 -5.3041300412938E-02
57  5.6000000000000E-01  1.3602256170418E+00 -3.1372627259685E-02
58  5.7000000000000E-01  1.3540983263167E+00 -8.8802212230308E-03
59  5.8000000000000E-01  1.3466514694938E+00  1.4354490234463E-02
60  5.9000000000000E-01  1.3379105188663E+00  3.8246873846057E-02
61  6.0000000000000E-01  1.3279036611366E+00  6.2709892315806E-02
62  6.1000000000000E-01  1.3166616440380E+00  8.7654932492370E-02
63  6.2000000000000E-01  1.3042176110883E+00  1.1299265144906E-01
64  6.3000000000000E-01  1.2906069259722E+00  1.3863383172588E-01
65  6.4000000000000E-01  1.2758669881239E+00  1.6449023682693E-01
66  6.5000000000000E-01  1.2600370411359E+00  1.9047545799563E-01
67  6.6000000000000E-01  1.2431579756537E+00  2.1650574331107E-01
68  6.7000000000000E-01  1.2252721284416E+00  2.4250080026351E-01
69  6.8000000000000E-01  1.2064230793058E+00  2.6838456317243E-01
70  6.9000000000000E-01  1.1866554475510E+00  2.9408591710660E-01
71  7.0000000000000E-01  1.1660146896159E+00  3.1953937035003E-01
72  7.1000000000000E-01  1.1445468994905E+00  3.4468566792356E-01
73  7.2000000000000E-01  1.1222986134577E+00  3.6947233921958E-01
74  7.3000000000000E-01  1.0993166206288E+00  3.9385417342642E-01
75  7.4000000000000E-01  1.0756477806548E+00  4.1779361710705E-01
76  7.5000000000000E-01  1.0513388498975E+00  4.4126108904352E-01
77  7.6000000000000E-01  1.0264363172336E+00  4.6423520826003E-01
78  7.7000000000000E-01  1.0009862505475E+00  4.8670293198086E-01
79  7.8000000000000E-01  9.7503415484018E-01  5.0865960116060E-01
80  7.9000000000000E-01  9.4862484274703E-01  5.3010889212994E-01
81  8.0000000000000E-01  9.2180231812263E-01  5.5106267382436E-01
82  8.1000000000000E-01  8.9460967320464E-01  5.7154077099380E-01
83  8.2000000000000E-01  8.6708899972873E-01  5.9157063472046E-01
84  8.3000000000000E-01  8.3928131422194E-01  6.1118692248890E-01
85  8.4000000000000E-01  8.1122649756062E-01  6.3043099094878E-01
86  8.5000000000000E-01  7.8296324874066E-01  6.4935030537664E-01
87  8.6000000000000E-01  7.5452905267353E-01  6.6799777067044E-01
88  8.7000000000000E-01  7.2596016169411E-01  6.8643098949137E-01
89  8.8000000000000E-01  6.9729159034514E-01  7.0471145389353E-01
90  8.9000000000000E-01  6.6855712289065E-01  7.2290367744810E-01
91  9.0000000000000E-01  6.3978933290765E-01  7.4107427546663E-01
92  9.1000000000000E-01  6.1101961421178E-01  7.5929100145605E-01
93  9.2000000000000E-01  5.8227822229017E-01  7.7762174838792E-01
94  9.3000000000000E-01  5.5359432534335E-01  7.9613352373758E-01
95  9.4000000000000E-01  5.2499606397739E-01  8.1489140753949E-01
96  9.5000000000000E-01  4.9651061853931E-01  8.3395750291468E-01
97  9.6000000000000E-01  4.6816428305080E-01  8.5338988865377E-01
98  9.7000000000000E-01  4.3998254466886E-01  8.7324158348559E-01
99  9.8000000000000E-01  4.1199016758607E-01  8.9355953163005E-01
100  9.9000000000000E-01  3.8421128027677E-01  9.1438361912682E-01
101  1.0000000000000E+00  3.5666946499822E-01  9.3574573025224E-01
102  1.0100000000000E+00  3.2938784846662E-01  9.5766885309209E-01
103  1.0200000000000E+00  3.0238919264560E-01  9.8016624303165E-01
104  1.0300000000000E+00  2.7569598460834E-01  1.0032406525625E+00
105  1.0400000000000E+00  2.4933052446249E-01  1.0268836353960E+00
106  1.0500000000000E+00  2.2331501035861E-01  1.0510749324234E+00
107  1.0600000000000E+00  1.9767161963583E-01  1.0757819465739E+00
108  1.0700000000000E+00  1.7242258519266E-01  1.1009593131141E+00
109  1.0800000000000E+00  1.4759026620405E-01  1.1265485713947E+00
110  1.0900000000000E+00  1.2319721233760E-01  1.1524779435080E+00
111  1.1000000000000E+00  9.9266220650425E-02  1.1786622247649E+00
112  1.1100000000000E+00  7.5820384373508E-02  1.2050027903454E+00
113  1.1200000000000E+00  5.2883132810994E-02  1.2313877219252E+00
114  1.1300000000000E+00  3.0478261597761E-02  1.2576920575380E+00
115  1.1400000000000E+00  8.6299525692222E-03  1.2837781673961E+00
116  1.1500000000000E+00 -1.2637217497127E-02  1.3094962578692E+00
117  1.1600000000000E+00 -3.3298280008246E-02  1.3346850053086E+00
118  1.1700000000000E+00 -5.3327890293397E-02  1.3591723208987E+00
119  1.1800000000000E+00 -7.2700356703270E-02  1.3827762472204E+00
120  1.1900000000000E+00 -9.1389683828673E-02  1.4053059867115E+00
121  1.2000000000000E+00 -1.0936963060574E-01  1.4265630617054E+00
122  1.2100000000000E+00 -1.2661378408087E-01  1.4463426052080E+00
123  1.2200000000000E+00 -1.4309564961067E-01  1.4644347810246E+00
124  1.2300000000000E+00 -1.5878875826613E-01  1.4806263312611E+00
125  1.2400000000000E+00 -1.7366679219398E-01  1.4947022485798E+00
126  1.2500000000000E+00 -1.8770372865669E-01  1.5064475698768E+00
127  1.2600000000000E+00 -2.0087400342247E-01  1.5156492872386E+00
128  1.2700000000000E+00 -2.1315269410341E-01  1.5220983711157E+00
129  1.2800000000000E+00 -2.2451572393844E-01  1.5255918996007E+00
130  1.2900000000000E+00 -2.3494008638230E-01  1.5259352864741E+00
131  1.3000000000000E+00 -2.4440409068800E-01  1.5229445992850E+00
132  1.3100000000000E+00 -2.5288762845166E-01  1.5164489571161E+00
133  1.3200000000000E+00 -2.6037246081769E-01  1.5062929958108E+00
134  1.3300000000000E+00 -2.6684252571452E-01  1.4923393863058E+00
135  1.3400000000000E+00 -2.7228426410046E-01  1.4744713892649E+00
136  1.3500000000000E+00 -2.7668696373389E-01  1.4525954264076E+00
137  1.3600000000000E+00 -2.8004311844133E-01  1.4266436457574E+00
138  1.3700000000000E+00 -2.8234880022705E-01  1.3965764544378E+00
139  1.3800000000000E+00 -2.8360404085022E-01  1.3623849886164E+00
140  1.3900000000000E+00 -2.8381321866771E-01  1.3240934856366E+00
141  1.4000000000000E+00 -2.8298544561125E-01  1.2817615183180E+00
142  1.4100000000000E+00 -2.8113494811622E-01  1.2354860457554E+00
143  1.4200000000000E+00 -2.7828143464268E-01  1.1854032286741E+00
144  1.4300000000000E+00 -2.7445044112131E-01  1.1316899504878E+00
145  1.4400000000000E+00 -2.6967364419676E-01  1.0745649775360E+00
146  1.4500000000000E+00 -2.6398913053809E-01  1.0142896836094E+00
147  1.4600000000000E+00 -2.5744160871521E-01  9.5116825465925E-01
148  1.4700000000000E+00 -2.5008254819678E-01  8.8554727952552E-01
149  1.4800000000000E+00 -2.4197022790623E-01  8.1781462156667E-01
150  1.4900000000000E+00 -2.3316967445520E-01  7.4839745413854E-01
151  1.5000000000000E+00 -2.2375246765270E-01  6.7775932989965E-01
152  1.5100000000000E+00 -2.1379638815979E-01  6.0639613990560E-01
153  1.5200000000000E+00 -2.0338487919877E-01  5.3483080326186E-01
154  1.5300000000000E+00 -1.9260629102875E-01  4.6360651171092E-01
155  1.5400000000000E+00 -1.8155287345147E-01  3.9327833585149E-01
156  1.5500000000000E+00 -1.7031947789905E-01  3.2440298066239E-01
157  1.5600000000000E+00 -1.5900192665506E-01  2.5752645749652E-01
158  1.5700000000000E+00 -1.4769500249413E-01  1.9316941783360E-01
159  1.5800000000000E+00 -1.3649000630024E-01  1.3180986146699E-01
160  1.5900000000000E+00 -1.2547182489872E-01  7.3862905300320E-02
161  1.6000000000000E+00 -1.1471552675194E-01  1.9657907806137E-02
162  1.6100000000000E+00 -1.0428198169872E-01 -3.0590908131753E-02
163  1.6200000000000E+00 -9.4216767734590E-02 -7.6785873748825E-02
164  1.6300000000000E+00 -8.4556812242208E-02 -1.1888644482725E-01
165  1.6400000000000E+00 -7.5334746658583E-02 -1.5687228521563E-01
166  1.6500000000000E+00 -6.6578596195246E-02 -1.9074536936490E-01
167  1.6600000000000E+00 -5.8311775983078E-02 -2.2052962618371E-01
168  1.6700000000000E+00 -5.0553057953228E-02 -2.4627095280580E-01
169  1.6800000000000E+00 -4.3316571740258E-02 -2.6803705916157E-01
170  1.6900000000000E+00 -3.6611842495163E-02 -2.8591712257247E-01
171  1.7000000000000E+00 -3.0443863957371E-02 -3.0002126566788E-01
172  1.7100000000000E+00 -2.4813206352102E-02 -3.1047985988482E-01
173  1.7200000000000E+00 -1.9716158366339E-02 -3.1744265841949E-01
174  1.7300000000000E+00 -1.5144902148020E-02 -3.2107776409367E-01
175  1.7400000000000E+00 -1.1087719992268E-02 -3.2157043900108E-01
176  1.7500000000000E+00 -7.5292310485717E-03 -3.1912176458256E-01
177  1.7600000000000E+00 -4.4506561402441E-03 -3.1394716195336E-01
178  1.7700000000000E+00 -1.8301085169147E-03 -3.0627478371837E-01
179  1.7800000000000E+00  3.5709187086384E-04 -2.9634378969147E-01
180  1.7900000000000E+00  2.1380833251777E-03 -2.8440252086738E-01
181  1.8000000000000E+00  3.5421092360183E-03 -2.7070658501292E-01
182  1.8100000000000E+00  4.6001496489132E-03 -2.5551686829123E-01
183  1.8200000000000E+00  5.3445421926381E-03 -2.3909749917214E-01
184  1.8300000000000E+00  5.8085926796162E-03 -2.2171376135731E-01
185  1.8400000000000E+00  6.0261819627006E-03 -2.0362999490857E-01
186  1.8500000000000E+00  6.0313705437038E-03 -1.8510749010197E-01
187  1.8600000000000E+00  5.8580049779620E-03 -1.6640239579478E-01
188  1.8700000000000E+00  5.5393316470891E-03 -1.4776366827565E-01
189  1.8800000000000E+00  5.1076007063259E-03 -1.2943099910592E-01
190  1.8900000000000E+00  4.5937451681987E-03 -1.1163304877442E-01
191  1.9000000000000E+00  4.0269749471667E-03 -9.4585397395757E-02
192  1.9100000000000E+00  3.4335140138502E-03 -7.8485173237780E-02
193  1.9200000000000E+00  2.8356211527297E-03 -6.3506693233236E-02
194  1.9300000000000E+00  2.2563793083385E-03 -4.9819584401724E-02
195  1.9400000000000E+00  1.7163078635504E-03 -3.7575617823051E-02
196  1.9500000000000E+00  1.2325325751602E-03 -2.6905190207400E-02
197  1.9600000000000E+00  8.1871449151249E-04 -1.7916728859393E-02
198  1.9700000000000E+00  4.8491257524251E-04 -1.0697036542843E-02
199  1.9800000000000E+00  2.3717216520752E-04 -5.3037338359616E-03
200  1.9900000000000E+00  7.7564865650082E-05 -1.7683841006783E-03
201  2.0000000000000E+00  8.4043543528477E-06 -1.9701933074831E-04
202  2.0100000000000E+00 -2.5620901653085E-06  6.0740400509541E-05
203  2.0200000000000E+00  8.0983639731562E-07 -1.8880024862154E-05
204  2.03 -0.  0.
205  2.04 -0.  0.
206  2.05 -0.  0.
207  2.06  0.  0.
208  2.07  0.  0.
209  2.08  0.  0.
210  2.09  0.  0.
211  2.10  0.  0.
212  2.11  0.  0.
213  2.12  0.  0.
214  2.13  0.  0.
215  2.14  0.  0.
216  2.15  0.  0.
217  2.16  0.  0.
218  2.17  0.  0.
219  2.18  0.  0.
220  2.19  0.  0.
221  2.20  0.  0.
222  2.21  0.  0.
223  2.22  0.  0.
224  2.23  0.  0.
225  2.24  0.  0.
226  2.25  0.  0.
227  2.26  0.  0.
228  2.27  0.  0.
229  2.28  0.  0.
230  2.29  0.  0.
231  2.30  0.  0.
232  2.31  0.  0.
233  2.32  0.  0.
234  2.33  0.  0.
235  2.34  0.  0.
236  2.35  0.  0.
237  2.36  0.  0.
238  2.37  0.  0.
239  2.38  0.  0.
240  2.39  0.  0.
241  2.40  0.  0.
242  2.41  0.  0.
243  2.42  0.  0.
244  2.43  0.  0.
245  2.44  0.  0.
246  2.45  0.  0.
247  2.46  0.  0.
248  2.47  0.  0.
249  2.48  0.  0.
250  2.49  0.  0.
251  2.50  0.  0.
252  2.51  0.  0.
253  2.52  0.  0.
254  2.53  0.  0.
255  2.54  0.  0.
256  2.55  0.  0.
257  2.56  0.  0.
258  2.57  0.  0.
259  2.58  0.  0.
260  2.59  0.  0.
261  2.60  0.  0.
262  2.61  0.  0.
263  2.62  0.  0.
264  2.63  0.  0.
265  2.64  0.  0.
266  2.65  0.  0.
267  2.66  0.  0.
268  2.67  0.  0.
269  2.68  0.  0.
270  2.69  0.  0.
271  2.70  0.  0.
272  2.71  0.  0.
273  2.72  0.  0.
274  2.73  0.  0.
275  2.74  0.  0.
276  2.75  0.  0.
277  2.76  0.  0.
278  2.77  0.  0.
279  2.78  0.  0.
280  2.79  0.  0.
281  2.80  0.  0.
282  2.81  0.  0.
283  2.82  0.  0.
284  2.83  0.  0.
285  2.84  0.  0.
286  2.85  0.  0.
287  2.86  0.  0.
288  2.87  0.  0.
289  2.88  0.  0.
290  2.89  0.  0.
291  2.90  0.  0.
292  2.91  0.  0.
293  2.92  0.  0.
294  2.93  0.  0.
295  2.94  0.  0.
296  2.95  0.  0.
297  2.96  0.  0.
298  2.97  0.  0.
299  2.98  0.  0.
300  2.99  0.  0.
301  3.00  0.  0.
302  3.01  0.  0.
303  3.02  0.  0.
304  3.03  0.  0.
305  3.04  0.  0.
306  3.05  0.  0.
307  3.06  0.  0.
308  3.07  0.  0.
309  3.08  0.  0.
310  3.09  0.  0.
311  3.10  0.  0.
312  3.11  0.  0.
313  3.12  0.  0.
314  3.13  0.  0.
315  3.14  0.  0.
316  3.15  0.  0.
317  3.16  0.  0.
318  3.17  0.  0.
319  3.18  0.  0.
320  3.19  0.  0.
321  3.20  0.  0.
322  3.21  0.  0.
323  3.22  0.  0.
324  3.23  0.  0.
325  3.24  0.  0.
326  3.25  0.  0.
327  3.26  0.  0.
328  3.27  0.  0.
329  3.28  0.  0.
330  3.29  0.  0.
331  3.30  0.  0.
332  3.31  0.  0.
333  3.32  0.  0.
334  3.33  0.  0.
335  3.34  0.  0.
336  3.35  0.  0.
337  3.36  0.  0.
338  3.37  0.  0.
339  3.38  0.  0.
340  3.39  0.  0.
341  3.40  0.  0.
342  3.41  0.  0.
343  3.42  0.  0.
344  3.43  0.  0.
345  3.44  0.  0.
346  3.45  0.  0.
347  3.46  0.  0.
348  3.47  0.  0.
349  3.48  0.  0.
350  3.49  0.  0.
351  3.50  0.  0.
352  3.51  0.  0.
353  3.52  0.  0.
354  3.53  0.  0.
355  3.54  0.  0.
356  3.55  0.  0.
357  3.56  0.  0.
358  3.57  0.  0.
359  3.58  0.  0.
360  3.59  0.  0.
361  3.60  0.  0.
362  3.61  0.  0.
363  3.62  0.  0.
364  3.63  0.  0.
365  3.64  0.  0.
366  3.65  0.  0.
367  3.66  0.  0.
368  3.67  0.  0.
369  3.68  0.  0.
370  3.69  0.  0.
371  3.70  0.  0.
372  3.71  0.  0.
373  3.72  0.  0.
374  3.73  0.  0.
375  3.74  0.  0.
376  3.75  0.  0.
377  3.76  0.  0.
378  3.77  0.  0.
379  3.78  0.  0.
380  3.79  0.  0.
381  3.80  0.  0.
382  3.81  0.  0.
383  3.82  0.  0.
384  3.83  0.  0.
385  3.84  0.  0.
386  3.85  0.  0.
387  3.86  0.  0.
388  3.87  0.  0.
389  3.88  0.  0.
390  3.89  0.  0.
391  3.90  0.  0.
392  3.91  0.  0.
393  3.92  0.  0.
394  3.93  0.  0.
395  3.94  0.  0.
396  3.95  0.  0.
397  3.96  0.  0.
398  3.97  0.  0.
399  3.98  0.  0.
400  3.99  0.  0.
401  4.00  0.  0.
402  4.01  0.  0.
403  4.02  0.  0.
404  4.03  0.  0.
405  4.04  0.  0.
406  4.05  0.  0.
407  4.06  0.  0.
408  4.07  0.  0.
409  4.08  0.  0.
410  4.09  0.  0.
411  4.10  0.  0.
412  4.11  0.  0.
413  4.12  0.  0.
414  4.13  0.  0.
415  4.14  0.  0.
416  4.15  0.  0.
417  4.16  0.  0.
418  4.17  0.  0.
419  4.18  0.  0.
420  4.19  0.  0.
421  4.20  0.  0.
422  4.21  0.  0.
423  4.22  0.  0.
424  4.23  0.  0.
425  4.24  0.  0.
426  4.25  0.  0.
427  4.26  0.  0.
428  4.27  0.  0.
429  4.28  0.  0.
430  4.29  0.  0.
431  4.30  0.  0.
432  4.31  0.  0.
433  4.32  0.  0.
434  4.33  0.  0.
435  4.34  0.  0.
436  4.35  0.  0.
437  4.36  0.  0.
438  4.37  0.  0.
439  4.38  0.  0.
440  4.39  0.  0.
441  4.40  0.  0.
442  4.41  0.  0.
443  4.42  0.  0.
444  4.43  0.  0.
445  4.44  0.  0.
446  4.45  0.  0.
447  4.46  0.  0.
448  4.47  0.  0.
449  4.48  0.  0.
450  4.49  0.  0.
451  4.50  0.  0.
452  4.51  0.  0.
453  4.52  0.  0.
454  4.53  0.  0.
455  4.54  0.  0.
456  4.55  0.  0.
457  4.56  0.  0.
458  4.57  0.  0.
459  4.58  0.  0.
460  4.59  0.  0.
461  4.60  0.  0.
462  4.61  0.  0.
463  4.62  0.  0.
464  4.63  0.  0.
465  4.64  0.  0.
466  4.65  0.  0.
467  4.66  0.  0.
468  4.67  0.  0.
469  4.68  0.  0.
470  4.69  0.  0.
471  4.70  0.  0.
472  4.71  0.  0.
473  4.72  0.  0.
474  4.73  0.  0.
475  4.74  0.  0.
476  4.75  0.  0.
477  4.76  0.  0.
478  4.77  0.  0.
479  4.78  0.  0.
480  4.79  0.  0.
481  4.80  0.  0.
482  4.81  0.  0.
483  4.82  0.  0.
484  4.83  0.  0.
485  4.84  0.  0.
486  4.85  0.  0.
487  4.86  0.  0.
488  4.87  0.  0.
489  4.88  0.  0.
490  4.89  0.  0.
491  4.90  0.  0.
492  4.91  0.  0.
493  4.92  0.  0.
494  4.93  0.  0.
495  4.94  0.  0.
496  4.95  0.  0.
497  4.96  0.  0.
498  4.97  0.  0.
499  4.98  0.  0.
500  4.99  0.  0.
501  5.00  0.  0.
502  5.01  0.  0.
503  5.02  0.  0.
504  5.03  0.  0.
505  5.04  0.  0.
506  5.05  0.  0.
507  5.06  0.  0.
508  5.07  0.  0.
509  5.08  0.  0.
510  5.09  0.  0.
511  5.10  0.  0.
512  5.11  0.  0.
513  5.12  0.  0.
514  5.13  0.  0.
515  5.14  0.  0.
516  5.15  0.  0.
517  5.16  0.  0.
518  5.17  0.  0.
519  5.18  0.  0.
520  5.19  0.  0.
521  5.20  0.  0.
522  5.21  0.  0.
523  5.22  0.  0.
524  5.23  0.  0.
525  5.24  0.  0.
526  5.25  0.  0.
527  5.26  0.  0.
528  5.27  0.  0.
529  5.28  0.  0.
530  5.29  0.  0.
531  5.30  0.  0.
532  5.31  0.  0.
533  5.32  0.  0.
534  5.33  0.  0.
535  5.34  0.  0.
536  5.35  0.  0.
537  5.36  0.  0.
538  5.37  0.  0.
539  5.38  0.  0.
540  5.39  0.  0.
541  5.40  0.  0.
542  5.41  0.  0.
543  5.42  0.  0.
544  5.43  0.  0.
545  5.44  0.  0.
546  5.45  0.  0.
547  5.46  0.  0.
548  5.47  0.  0.
549  5.48  0.  0.
550  5.49  0.  0.
551  5.50  0.  0.
552  5.51  0.  0.
553  5.52  0.  0.
554  5.53  0.  0.
555  5.54  0.  0.
556  5.55  0.  0.
557  5.56  0.  0.
558  5.57  0.  0.
559  5.58  0.  0.
560  5.59  0.  0.
561  5.60  0.  0.
562  5.61  0.  0.
563  5.62  0.  0.
564  5.63  0.  0.
565  5.64  0.  0.
566  5.65  0.  0.
567  5.66  0.  0.
568  5.67  0.  0.
569  5.68  0.  0.
570  5.69  0.  0.
571  5.70  0.  0.
572  5.71  0.  0.
573  5.72  0.  0.
574  5.73  0.  0.
575  5.74  0.  0.
576  5.75  0.  0.
577  5.76  0.  0.
578  5.77  0.  0.
579  5.78  0.  0.
580  5.79  0.  0.
581  5.80  0.  0.
582  5.81  0.  0.
583  5.82  0.  0.
584  5.83  0.  0.
585  5.84  0.  0.
586  5.85  0.  0.
587  5.86  0.  0.
588  5.87  0.  0.
589  5.88  0.  0.
590  5.89  0.  0.
591  5.90  0.  0.
592  5.91  0.  0.
593  5.92  0.  0.
594  5.93  0.  0.
595  5.94  0.  0.
596  5.95  0.  0.
597  5.96  0.  0.
598  5.97  0.  0.
599  5.98  0.  0.
600  5.99  0.  0.
1                         4.7170975516236E+00  5.9051433672916E-01
1  0.0000000000000E+00  1.0752720158713E-08 -5.7045476037354E-08
2  1.0000000000000E-02  1.3826034645068E-03 -3.1283587998583E-03
3  2.0000000000000E-02  5.5137217806467E-03 -1.2432478101544E-02
4  3.0000000000000E-02  1.2343598611548E-02 -2.7671182207358E-02
5  4.0000000000000E-02  2.1790366709565E-02 -4.8448130029853E-02
6  5.0000000000000E-02  3.3741615830283E-02 -7.4220125830684E-02
7  6.0000000000000E-02  4.8056544139078E-02 -1.0430852282319E-01
8  7.0000000000000E-02  6.4568650456365E-02 -1.3791349356903E-01
9  8.0000000000000E-02  8.3088913934966E-02 -1.7413088405388E-01
10  9.0000000000000E-02  1.0340939804834E-01 -2.1197131674415E-01
11  1.0000000000000E-01  1.2530720728139E-01 -2.5038116280677E-01
12  1.1000000000000E-01  1.4854871782248E-01 -2.8826496589289E-01
13  1.2000000000000E-01  1.7289399799628E-01 -3.2450887018360E-01
14  1.3000000000000E-01  1.9810133026178E-01 -3.5800458435620E-01
15  1.4000000000000E-01  2.2393174440854E-01 -3.8767340117390E-01
16  1.5000000000000E-01  2.5015347116251E-01 -4.1248978977827E-01
17  1.6000000000000E-01  2.7654622677206E-01 -4.3150408454320E-01
18  1.7000000000000E-01  3.0290524226572E-01 -4.4386381042285E-01
19  1.8000000000000E-01  3.2904495589630E-01 -4.4883320980742E-01
20  1.9000000000000E-01  3.5480229372649E-01 -4.4581056953186E-01
21  2.0000000000000E-01  3.8003947124565E-01 -4.3434298823960E-01
22  2.1000000000000E-01  4.0464625818999E-01 -4.1413827301108E-01
23  2.2000000000000E-01  4.2854165919098E-01 -3.8507370911083E-01
24  2.3000000000000E-01  4.5167497430326E-01 -3.4720150684964E-01
25  2.4000000000000E-01  4.7402621564432E-01 -3.0075079376331E-01
26  2.5000000000000E-01  4.9560586908140E-01 -2.4612608735422E-01
27  2.6000000000000E-01  5.1645400288215E-01 -1.8390225224994E-01
28  2.7000000000000E-01  5.3663873825430E-01 -1.1481601449064E-01
29  2.8000000000000E-01  5.5625410948407E-01 -3.9754173440702E-02
30  2.9000000000000E-01  5.7541735369415E-01  4.0261282776384E-02
31  3.0000000000000E-01  5.9426568183942E-01  1.2409089066620E-01
32  3.1000000000000E-01  6.1295259321376E-01  2.1049792901752E-01
33  3.2000000000000E-01  6.3164380524249E-01  2.9817076533067E-01
34  3.3000000000000E-01  6.5051287849279E-01  3.8574691156855E-01
35  3.4000000000000E-01  6.6973662348230E-01  4.7183833367543E-01
36  3.5000000000000E-01  6.8949038086754E-01  5.5505753179272E-01
37  3.6000000000000E-01  7.0994326984074E-01  6.3404388975014E-01
38  3.7000000000000E-01  7.3125350098432E-01  7.0748978362377E-01
39  3.8000000000000E-01  7.5356384938520E-01  7.7416594015463E-01
40  3.9000000000000E-01  7.7699738149473E-01  8.3294554664778E-01
41  4.0000000000000E-01  8.0165352506496E-01  8.8282663447373E-01
42  4.1000000000000E-01  8.2760456556682E-01  9.2295228813547E-01
43  4.2000000000000E-01  8.5489264490139E-01  9.5262827053171E-01
44  4.3000000000000E-01  8.8352732908716E-01  9.7133770185354E-01
45  4.4000000000000E-01  9.1348380110809E-01  9.7875248365369E-01
46  4.5000000000000E-01  9.4470172343134E-01  9.7474122003572E-01
47  4.6000000000000E-01  9.7708480206608E-01  9.5937345350963E-01
48  4.7000000000000E-01  1.0105010706705E+00  9.3292010263174E-01
49  4.8000000000000E-01  1.0447838993761E+00  8.9585006078376E-01
50  4.9000000000000E-01  1.0797337189449E+00  8.4882298898870E-01
51  5.0000000000000E-01  1.1151204368821E+00  7.9267840911058E-01
52  5.1000000000000E-01  1.1506865084493E+00  7.2842127573841E-01
53  5.2000000000000E-01  1.1861506124461E+00  6.5720427412690E-01
54  5.3000000000000E-01  1.2212118693849E+00  5.8030715641705E-01
55  5.4000000000000E-01  1.2555545285332E+00  4.9911348772204E-01
56  5.5000000000000E-01  1.2888530404542E+00  4.1508522636316E-01
57  5.6000000000000E-01  1.3207774233393E+00  3.2973560752448E-01
58  5.7000000000000E-01  1.3509988247708E+00  2.4460083594800E-01
59  5.8000000000000E-01  1.3791951757198E+00  1.6121112025547E-01
60  5.9000000000000E-01  1.4050568306764E+00  8.1061598476510E-02
61  6.0000000000000E-01  1.4282920869078E+00  5.5837109850686E-03
62  6.1000000000000E-01  1.4486324769705E+00 -6.3882426905718E-02
63  6.2000000000000E-01  1.4658377317652E+00 -1.2611411497106E-01
64  6.3000000000000E-01  1.4797003165748E+00 -1.8003010791874E-01
65  6.4000000000000E-01  1.4900494495856E+00 -2.2471212714467E-01
66  6.5000000000000E-01  1.4967545212375E+00 -2.5942341079224E-01
67  6.6000000000000E-01  1.4997278432358E+00 -2.8362392143461E-01
68  6.7000000000000E-01  1.4989266679906E+00 -2.9698189130873E-01
69  6.8000000000000E-01  1.4943544324199E+00 -2.9938145223171E-01
70  6.9000000000000E-01  1.4860611942215E+00 -2.9092616989584E-01
71  7.0000000000000E-01  1.4741432436184E+00 -2.7193837882366E-01
72  7.1000000000000E-01  1.4587418889424E+00 -2.4295429345268E-01
73  7.2000000000000E-01  1.4400414299534E+00 -2.0471495111382E-01
74  7.3000000000000E-01  1.4182663481946E+00 -1.5815312255755E-01
75  7.4000000000000E-01  1.3936777586766E+00 -1.0437640364475E-01
76  7.5000000000000E-01  1.3665691814663E+00 -4.4646776351598E-02
77  7.6000000000000E-01  1.3372617050604E+00  1.9643003092222E-02
78  7.7000000000000E-01  1.3060986254826E+00  8.6995767674495E-02
79  7.8000000000000E-01  1.2734396556236E+00  1.5583857746617E-01
80  7.9000000000000E-01  1.2396548082274E+00  2.2455310731027E-01
81  8.0000000000000E-01  1.2051180629368E+00  2.9150722196926E-01
82  8.1000000000000E-01  1.1702009327970E+00  3.5508714892753E-01
83  8.2000000000000E-01  1.1352660484671E+00  4.1372964255809E-01
84  8.3000000000000E-01  1.1006608790350E+00  4.6595352822011E-01
85  8.4000000000000E-01  1.0667117067450E+00  5.1039002123866E-01
86  8.5000000000000E-01  1.0337179691368E+00  5.4581123359128E-01
87  8.6000000000000E-01  1.0019470761202E+00  5.7115631023486E-01
88  8.7000000000000E-01  9.7162980146619E-01  5.8555467687748E-01
89  8.8000000000000E-01  9.4295633821770E-01  5.8834593095703E-01
90  8.9000000000000E-01  9.1607309579051E-01  5.7909596675553E-01
91  9.0000000000000E-01  8.9108030325174E-01  5.5760899290127E-01
92  9.1000000000000E-01  8.6803046867304E-01  5.2393517477185E-01
93  9.2000000000000E-01  8.4692772882318E-01  4.7837371415464E-01
94  9.3000000000000E-01  8.2772810707785E-01  4.2147126247999E-01
95  9.4000000000000E-01  8.1034068059035E-01  3.5401565044483E-01
96  9.5000000000000E-01  7.9462964079459E-01  2.7702500430089E-01
97  9.6000000000000E-01  7.8041721452668E-01  1.9173240582573E-01
98  9.7000000000000E-01  7.6748739676664E-01  9.9566337399391E-02
99  9.8000000000000E-01  7.5559043052831E-01  2.1272340819333E-03
100  9.9000000000000E-01  7.4444795506441E-01 -9.8839460449653E-02
101  1.0000000000000E+00  7.3375873056855E-01 -2.0147326914744E-01
102  1.0100000000000E+00  7.2320483621574E-01 -3.0383116324796E-01
103  1.0200000000000E+00  7.1245822889962E-01 -4.0392197512920E-01
104  1.0300000000000E+00  7.0118754258411E-01 -4.9974212710343E-01
105  1.0400000000000E+00  6.8906500294859E-01 -5.8931203203215E-01
106  1.0500000000000E+00  6.7577332907198E-01 -6.7071250458490E-01
107  1.0600000000000E+00  6.6101249333661E-01 -7.4212051703236E-01
108  1.0700000000000E+00  6.4450621257029E-01 -8.0184364087718E-01
109  1.0800000000000E+00  6.2600804763617E-01 -8.4835253516635E-01
110  1.0900000000000E+00  6.0530699519839E-01 -8.8031087388836E-01
111  1.1000000000000E+00  5.8223246406495E-01 -8.9660214760016E-01
112  1.1100000000000E+00  5.5665853925346E-01 -8.9635282793157E-01
113  1.1200000000000E+00  5.2850744948075E-01 -8.7895144659806E-01
114  1.1300000000000E+00  4.9775216796764E-01 -8.4406321212077E-01
115  1.1400000000000E+00  4.6441809198577E-01 -7.9163986615659E-01
116  1.1500000000000E+00  4.2858376318110E-01 -7.2192456579528E-01
117  1.1600000000000E+00  3.9038060807938E-01 -6.3545166682070E-01
118  1.1700000000000E+00  3.4999169600487E-01 -5.3304137419130E-01
119  1.1800000000000E+00  3.0764952955082E-01 -4.1578931797030E-01
120  1.1900000000000E+00  2.6363290049877E-01 -2.8505120445240E-01
121  1.2000000000000E+00  2.1826286118703E-01 -1.4242278069134E-01
122  1.2100000000000E+00  1.7189787771477E-01  1.0284564268609E-02
123  1.2200000000000E+00  1.2492824643312E-01  1.7107215954381E-01
124  1.2300000000000E+00  7.7769868925012E-02  3.3778589985560E-01
125  1.2400000000000E+00  3.0857492655519E-02  5.0815104280185E-01
126  1.2500000000000E+00 -1.5362465464673E-02  6.7980936469630E-01
127  1.2600000000000E+00 -6.0439387353050E-02  8.5035804018368E-01
128  1.2700000000000E+00 -1.0392608292770E-01  1.0173895789852E+00
129  1.2800000000000E+00 -1.4538644586061E-01  1.1785321329034E+00
130  1.2900000000000E+00 -1.8440300065259E-01  1.3314894782984E+00
131  1.3000000000000E+00 -2.2058420726521E-01  1.4740799836841E+00
132  1.3100000000000E+00 -2.5357139341926E-01  1.6042738885927E+00
133  1.3200000000000E+00 -2.8304519091268E-01  1.7202282483951E+00
134  1.3300000000000E+00 -3.0873136075064E-01  1.8203189395067E+00