Pm    ONCVPSP-4.0.1  r_core=   2.00379   1.60593   1.91015   1.35016
61.0000     15.0000      241104    zatom,zion,pspd
8      11   3     4   600     0    pspcod,pspxc,lmax,lloc,mmax,r2well
5.99000000  4.00000000  0.00000000    rchrg fchrg qchrg
3     2     2     2     0    nproj
1     1           extension_switch
0                         1.1742998407749E+01  2.1774806084773E+00  3.8654565427422E-01
1  0.0000000000000E+00 -6.9082384257513E-10  2.1258340643371E-09 -4.0452938776525E-09
2  1.0000000000000E-02  3.9040603699862E-02 -2.3212300979605E-02  4.5275203455988E-02
3  2.0000000000000E-02  7.7995507486409E-02 -4.6153126529467E-02  8.9975400409317E-02
4  3.0000000000000E-02  1.1678002053077E-01 -6.8554531226703E-02  1.3353284694484E-01
5  4.0000000000000E-02  1.5531145617073E-01 -9.0155584549897E-02  1.7539423575388E-01
6  5.0000000000000E-02  1.9351009916631E-01 -1.1070576609629E-01  2.1502769405636E-01
7  6.0000000000000E-02  2.3130013165830E-01 -1.2996822764453E-01  2.5192951996733E-01
8  7.0000000000000E-02  2.6861050488480E-01 -1.4772288020276E-01  2.8563057492455E-01
9  8.0000000000000E-02  3.0537574440181E-01 -1.6376926630785E-01  3.1570225383942E-01
10  9.0000000000000E-02  3.4153667740233E-01 -1.7792918045405E-01  3.4176195960735E-01
11  1.0000000000000E-01  3.7704107172430E-01 -1.9004900359641E-01  3.6347801445518E-01
12  1.1000000000000E-01  4.1184417726887E-01 -2.0000172116220E-01  3.8057394725244E-01
13  1.2000000000000E-01  4.4590916180392E-01 -2.0768859787079E-01  3.9283210328943E-01
14  1.3000000000000E-01  4.7920743448862E-01 -2.1304048686500E-01  4.0009653105021E-01
15  1.4000000000000E-01  5.1171885190610E-01 -2.1601875514608E-01  4.0227510908880E-01
16  1.5000000000000E-01  5.4343180291661E-01 -2.1661581202647E-01  3.9934088515462E-01
17  1.6000000000000E-01  5.7434317022415E-01 -2.1485523221740E-01  3.9133260910894E-01
18  1.7000000000000E-01  6.0445816816540E-01 -2.1079147018981E-01  3.7835445081524E-01
19  1.8000000000000E-01  6.3379005786333E-01 -2.0450916753306E-01  3.6057490396694E-01
20  1.9000000000000E-01  6.6235974251612E-01 -1.9612206012059E-01  3.3822488661798E-01
21  2.0000000000000E-01  6.9019524719884E-01 -1.8577149692165E-01  3.1159505890080E-01
22  2.1000000000000E-01  7.1733108911575E-01 -1.7362458720247E-01  2.8103238792127E-01
23  2.2000000000000E-01  7.4380754574080E-01 -1.5987199759199E-01  2.4693599902266E-01
24  2.3000000000000E-01  7.6966982969972E-01 -1.4472542497826E-01  2.0975236138000E-01
25  2.4000000000000E-01  7.9496718056321E-01 -1.2841477540120E-01  1.6996986413020E-01
26  2.5000000000000E-01  8.1975188491885E-01 -1.1118508296445E-01  1.2811284685896E-01
27  2.6000000000000E-01  8.4407823715473E-01 -9.3293206250382E-02  8.4735155157276E-02
28  2.7000000000000E-01  8.6800145430419E-01 -7.5004342747952E-02  4.0413298046775E-02
29  2.8000000000000E-01  8.9157655905837E-01 -5.6588404350789E-02 -4.2607107259233E-03
30  2.9000000000000E-01  9.1485724563676E-01 -3.8316299016934E-02 -4.8686741279319E-02
31  3.0000000000000E-01  9.3789474361157E-01 -2.0456165180010E-02 -9.2264076579458E-02
32  3.1000000000000E-01  9.6073669499739E-01 -3.2696064316301E-03 -1.3439899014117E-01
33  3.2000000000000E-01  9.8342605994227E-01  1.2992025650437E-02 -1.7451227967506E-01
34  3.3000000000000E-01  1.0060000661868E+00  2.8091252886523E-02 -2.1204666391564E-01
35  3.4000000000000E-01  1.0284892170922E+00  4.1807949276066E-02 -2.4647395099958E-01
36  3.5000000000000E-01  1.0509163724825E+00  5.3942631764782E-02 -2.7730188899682E-01
37  3.6000000000000E-01  1.0732959158004E+00  6.4319519573159E-02 -3.0408061254170E-01
38  3.7000000000000E-01  1.0956330201535E+00  7.2789321190602E-02 -3.2640860389987E-01
39  3.8000000000000E-01  1.1179230247296E+00  7.9231711208409E-02 -3.4393809223702E-01
40  3.9000000000000E-01  1.1401509318085E+00  8.3557462712535E-02 -3.5637982122085E-01
41  4.0000000000000E-01  1.1622910331949E+00  8.5710204977121E-02 -3.6350712237675E-01
42  4.1000000000000E-01  1.1843066733713E+00  8.5667780611469E-02 -3.6515923968750E-01
43  4.2000000000000E-01  1.2061501550260E+00  8.3443181098073E-02 -3.6124385974607E-01
44  4.3000000000000E-01  1.2277627908828E+00  7.9085044735293E-02 -3.5173881118750E-01
45  4.4000000000000E-01  1.2490751039519E+00  7.2677706322836E-02 -3.3669290706798E-01
46  4.5000000000000E-01  1.2700071764697E+00  6.4340793425595E-02 -3.1622591418436E-01
47  4.6000000000000E-01  1.2904691459179E+00  5.4228369659662E-02 -2.9052764392514E-01
48  4.7000000000000E-01  1.3103618446262E+00  4.2527631095351E-02 -2.5985616998693E-01
49  4.8000000000000E-01  1.3295775776076E+00  2.9457167487596E-02 -2.2453518903485E-01
50  4.9000000000000E-01  1.3480010314567E+00  1.5264805561623E-02 -1.8495055101367E-01
51  5.0000000000000E-01  1.3655103053978E+00  2.2505692538882E-04 -1.4154599618838E-01
52  5.1000000000000E-01  1.3819780539156E+00 -1.5363801720492E-02 -9.4818145973003E-02
53  5.2000000000000E-01  1.3972727288668E+00 -3.1182983612274E-02 -4.5310804079053E-02
54  5.3000000000000E-01  1.4112599075645E+00 -4.6896745312258E-02  6.3913666535940E-03
55  5.4000000000000E-01  1.4238036920902E+00 -6.2156197597010E-02  5.9669718305457E-02
56  5.5000000000000E-01  1.4347681640096E+00 -7.6603329485494E-02  1.1387896214016E-01
57  5.6000000000000E-01  1.4440188777964E+00 -8.9875198097907E-02  1.6835489616504E-01
58  5.7000000000000E-01  1.4514243755870E+00 -1.0160823465718E-01  2.2242242384828E-01
59  5.8000000000000E-01  1.4568577054327E+00 -1.1144261519099E-01  2.7540376775847E-01
60  5.9000000000000E-01  1.4601979249777E+00 -1.1902664337821E-01  3.2662677897002E-01
61  6.0000000000000E-01  1.4613315724861E+00 -1.2402109253683E-01  3.7543324138214E-01
62  6.1000000000000E-01  1.4601540873669E+00 -1.2610345397633E-01  4.2118706965347E-01
63  6.2000000000000E-01  1.4565711628034E+00 -1.2497203984637E-01  4.6328230028438E-01
64  6.3000000000000E-01  1.4505000137805E+00 -1.2034989018584E-01  5.0115077746118E-01
65  6.4000000000000E-01  1.4418705447110E+00 -1.1198843610758E-01  5.3426943861173E-01
66  6.5000000000000E-01  1.4306264019807E+00 -9.9670873911575E-02  5.6216710916156E-01
67  6.6000000000000E-01  1.4167258980527E+00 -8.3215208375403E-02  5.8443072168236E-01
68  6.7000000000000E-01  1.4001427952701E+00 -6.2476927466169E-02  6.0071088139223E-01
69  6.8000000000000E-01  1.3808669391633E+00 -3.7351275232990E-02  6.1072670777308E-01
70  6.9000000000000E-01  1.3589047328788E+00 -7.7750945747781E-03  6.1426989074314E-01
71  7.0000000000000E-01  1.3342794462704E+00  2.6271783093678E-02  6.1120790931826E-01
72  7.1000000000000E-01  1.3070313552233E+00  6.4765618631881E-02  6.0148637084298E-01
73  7.2000000000000E-01  1.2772177088656E+00  1.0763832791411E-01  5.8513043957634E-01
74  7.3000000000000E-01  1.2449125244567E+00  1.5477753201746E-01  5.6224533449545E-01
75  7.4000000000000E-01  1.2102062118770E+00  2.0602709427468E-01  5.3301588754415E-01
76  7.5000000000000E-01  1.1732050317643E+00  2.6118813756947E-01  4.9770516497880E-01
77  7.6000000000000E-01  1.1340303934092E+00  3.2002052929659E-01  4.5665216587427E-01
78  7.7000000000000E-01  1.0928180005147E+00  3.8224481565420E-01  4.1026862303898E-01
79  7.8000000000000E-01  1.0497168547991E+00  4.4754458144983E-01  3.5903494242195E-01
80  7.9000000000000E-01  1.0048881291739E+00  5.1556920645533E-01  3.0349532745219E-01
81  8.0000000000000E-01  9.5850392380825E-01  5.8593698463451E-01  2.4425214444786E-01
82  8.1000000000000E-01  9.1074591978740E-01  6.5823856833897E-01  1.8195959418686E-01
83  8.2000000000000E-01  8.6180394627289E-01  7.3204069588440E-01  1.1731676281454E-01
84  8.3000000000000E-01  8.1187447803159E-01  8.0689015785450E-01  5.1060132345155E-02
85  8.4000000000000E-01  7.6115908093651E-01  8.8231795504102E-01 -1.6044362935016E-02
86  8.5000000000000E-01  7.0986282351607E-01  9.5784359918828E-01 -8.3209642974705E-02
87  8.6000000000000E-01  6.5819267285223E-01  1.0329795066513E+00 -1.4963605645407E-01
88  8.7000000000000E-01  6.0635589308301E-01  1.1072354347488E+00 -2.1452012587359E-01
89  8.8000000000000E-01  5.5455846446365E-01  1.1801229109616E+00 -2.7706336456462E-01
90  8.9000000000000E-01  5.0300354037987E-01  1.2511596062005E+00 -3.3648106691898E-01
91  9.0000000000000E-01  4.5188995889899E-01  1.3198736051160E+00 -3.9201097429337E-01
92  9.1000000000000E-01  4.0141082440075E-01  1.3858075288089E+00 -4.4292172136436E-01
93  9.2000000000000E-01  3.5175217357014E-01  1.4485224682719E+00 -4.8852097110287E-01
94  9.3000000000000E-01  3.0309173857519E-01  1.5076016904068E+00 -5.2816315095103E-01
95  9.4000000000000E-01  2.5559781862347E-01  1.5626540824281E+00 -5.6125670809096E-01
96  9.5000000000000E-01  2.0942826931416E-01  1.6133173048291E+00 -5.8727080780987E-01
97  9.6000000000000E-01  1.6472961731441E-01  1.6592606277451E+00 -6.0574140573946E-01
98  9.7000000000000E-01  1.2163630591743E-01  1.7001874304233E+00 -6.1627663206731E-01
99  9.8000000000000E-01  8.0270075023318E-02  1.7358373484988E+00 -6.1856143353505E-01
100  9.9000000000000E-01  4.0739477058451E-02  1.7659880587823E+00 -6.1236142701190E-01
101  1.0000000000000E+00  3.1395283507403E-03  1.7904566961845E+00 -5.9752592652649E-01
102  1.0100000000000E+00 -3.2448506453259E-02  1.8091009021434E+00 -5.7399011371336E-01
103  1.0200000000000E+00 -6.5957201172882E-02  1.8218195083748E+00 -5.4177632956206E-01
104  1.0300000000000E+00 -9.7332932011856E-02  1.8285528638490E+00 -5.0099447302133E-01
105  1.0400000000000E+00 -1.2653572606075E-01  1.8292828165212E+00 -4.5184149933064E-01
106  1.0500000000000E+00 -1.5353900314151E-01  1.8240323644224E+00 -3.9460001781693E-01
107  1.0600000000000E+00 -1.7832922083015E-01  1.8128649932068E+00 -3.2963599529668E-01
108  1.0700000000000E+00 -2.0090543330903E-01  1.7958837190711E+00 -2.5739557710411E-01
109  1.0800000000000E+00 -2.2127877523609E-01  1.7732298570971E+00 -1.7840104315139E-01
110  1.0900000000000E+00 -2.3947188206083E-01  1.7450815354869E+00 -9.3245921386051E-02
111  1.1000000000000E+00 -2.5551825815213E-01  1.7116519758654E+00 -2.5892855928489E-03
112  1.1100000000000E+00 -2.6946160373473E-01  1.6731875588460E+00  9.2850731106029E-02
113  1.1200000000000E+00 -2.8135511095590E-01  1.6299656924152E+00  1.9230417134987E-01
114  1.1300000000000E+00 -2.9126073844354E-01  1.5822924984976E+00  2.9495719692514E-01
115  1.1400000000000E+00 -2.9924847248404E-01  1.5305003303755E+00  3.9996069500952E-01
116  1.1500000000000E+00 -3.0539558147830E-01  1.4749451306149E+00  5.0643949583144E-01
117  1.1600000000000E+00 -3.0978586866603E-01  1.4160036359346E+00  6.1350214296281E-01
118  1.1700000000000E+00 -3.1250892629159E-01  1.3540704322539E+00  7.2025114829078E-01
119  1.1800000000000E+00 -3.1365939248446E-01  1.2895548601838E+00  8.2579365218225E-01
120  1.1900000000000E+00 -3.1333621020938E-01  1.2228777687682E+00  9.2925239469851E-01
121  1.2000000000000E+00 -3.1164188580835E-01  1.1544681136294E+00  1.0297768854266E+00
122  1.2100000000000E+00 -3.0868174298537E-01  1.0847593951922E+00  1.1265546363923E+00
123  1.2200000000000E+00 -3.0456316671567E-01  1.0141859337221E+00  1.2188222941935E+00
124  1.2300000000000E+00 -2.9939483060246E-01  9.4317898099385E-01  1.3058764724155E+00
125  1.2400000000000E+00 -2.9328590081701E-01  8.7216267398103E-01  1.3870840428025E+00
126  1.2500000000000E+00 -2.8634521009452E-01  8.0154984452471E-01  1.4618915924631E+00
127  1.2600000000000E+00 -2.7868039651763E-01  7.3173771125598E-01  1.5298336925866E+00
128  1.2700000000000E+00 -2.7039700418618E-01  6.6310349657611E-01  1.5905395512651E+00
129  1.2800000000000E+00 -2.6159754657523E-01  5.9600003309218E-01  1.6437375368518E+00
130  1.2900000000000E+00 -2.5238053869976E-01  5.3075145145577E-01  1.6892569569309E+00
131  1.3000000000000E+00 -2.4283951136386E-01  4.6764907572404E-01  1.7270263603566E+00
132  1.3100000000000E+00 -2.3306203007796E-01  4.0694769418002E-01  1.7570674935644E+00
133  1.3200000000000E+00 -2.2312875308993E-01  3.4886242437052E-01  1.7794838844574E+00
134  1.3300000000000E+00 -2.1311257758189E-01  2.9356645132379E-01  1.7944428396119E+00
135  1.3400000000000E+00 -2.0307794126131E-01  2.4118999115446E-01  1.8021494509854E+00
136  1.3500000000000E+00 -1.9308036884400E-01  1.9182091603212E-01  1.8028111058632E+00
137  1.3600000000000E+00 -1.8316644850497E-01  1.4550789277090E-01  1.7965967296818E+00
138  1.3700000000000E+00 -1.7337502822459E-01  1.0226886661336E-01  1.7836641581882E+00
139  1.3800000000000E+00 -1.6373859053710E-01  6.2098161553839E-02  1.7642177962257E+00
140  1.3900000000000E+00 -1.5428380393968E-01  2.4968574426005E-02  1.7385114545371E+00
141  1.4000000000000E+00 -1.4503202573439E-01 -9.1668384467633E-03  1.7068443140627E+00
142  1.4100000000000E+00 -1.3599983425320E-01 -4.0372857806419E-02  1.6695565426778E+00
143  1.4200000000000E+00 -1.2719958090954E-01 -6.8730107599879E-02  1.6270246271484E+00
144  1.4300000000000E+00 -1.1863995232385E-01 -9.4333001321653E-02  1.5796565066101E+00
145  1.4400000000000E+00 -1.1032653265703E-01 -1.1728766021123E-01  1.5278865621751E+00
146  1.4500000000000E+00 -1.0226235677967E-01 -1.3770983350938E-01  1.4721705237875E+00
147  1.4600000000000E+00 -9.4448445443489E-02 -1.5572284961979E-01  1.4129803545523E+00
148  1.4700000000000E+00 -8.6884314287069E-02 -1.7145562527591E-01  1.3507991705542E+00
149  1.4800000000000E+00 -7.9568449279440E-02 -1.8504075777213E-01  1.2861162521818E+00
150  1.4900000000000E+00 -7.2498742076823E-02 -1.9661272294465E-01  1.2194221994176E+00
151  1.5000000000000E+00 -6.5672879720085E-02 -2.0630619897488E-01  1.1512042799640E+00
152  1.5100000000000E+00 -5.9088684109550E-02 -2.1425453328682E-01  1.0819420149533E+00
153  1.5200000000000E+00 -5.2744397754909E-02 -2.2058836681694E-01  1.0121030421294E+00
154  1.5300000000000E+00 -4.6638913386307E-02 -2.2543442683500E-01  9.4213929135991E-01
155  1.5400000000000E+00 -4.0771946106851E-02 -2.2891449635246E-01  8.7248350213482E-01
156  1.5500000000000E+00 -3.5144147858569E-02 -2.3114456497074E-01  8.0354610711243E-01
157  1.5600000000000E+00 -2.9757165047957E-02 -2.3223416284024E-01  7.3571249990276E-01
158  1.5700000000000E+00 -2.4613641189470E-02 -2.3228587640016E-01  6.6934070006277E-01
159  1.5800000000000E+00 -1.9717167411434E-02 -2.3139504155494E-01  6.0475942223589E-01
160  1.5900000000000E+00 -1.5072184566175E-02 -2.2964960717113E-01  5.4226655093098E-01
161  1.6000000000000E+00 -1.0683841497044E-02 -2.2713015924013E-01  4.8212801744002E-01
162  1.6100000000000E+00 -6.5578147502478E-03 -2.2391009364794E-01  4.2457706996397E-01
163  1.6200000000000E+00 -2.7000956302539E-03 -2.2005592346111E-01  3.6981392362018E-01
164  1.6300000000000E+00  8.8324898980283E-04 -2.1562770482684E-01  3.1800577250952E-01
165  1.6400000000000E+00  4.1863353168168E-03 -2.1067956418050E-01  2.6928714248594E-01
166  1.6500000000000E+00  7.2037336801513E-03 -2.0526030824550E-01  2.2376055947394E-01
167  1.6600000000000E+00  9.9307447779460E-03 -1.9941409758187E-01  1.8149750564103E-01
168  1.6700000000000E+00  1.2363673933753E-02 -1.9318116402684E-01  1.4253963349674E-01
169  1.6800000000000E+00  1.4500096266447E-02 -1.8659855219427E-01  1.0690020581869E-01
170  1.6900000000000E+00  1.6339105936167E-02 -1.7970086555172E-01  7.4565728552525E-02
171  1.7000000000000E+00  1.7881542973256E-02 -1.7252099813179E-01  4.5497742959017E-02
172  1.7100000000000E+00  1.9130191666566E-02 -1.6509083385490E-01  1.9634743241773E-02
173  1.7200000000000E+00  2.0089945047120E-02 -1.5744189661205E-01 -3.1058137800340E-03
174  1.7300000000000E+00  2.0767930663676E-02 -1.4960593573789E-01 -2.2825439420815E-02
175  1.7400000000000E+00  2.1173593592704E-02 -1.4161543325303E-01 -3.9642515220051E-02
176  1.7500000000000E+00  2.1318733398564E-02 -1.3350402104461E-01 -5.3690195993221E-02
177  1.7600000000000E+00  2.1217492638670E-02 -1.2530679834064E-01 -6.5114340880993E-02
178  1.7700000000000E+00  2.0886295399891E-02 -1.1706054204169E-01 -7.4071497006865E-02
179  1.7800000000000E+00  2.0343735218609E-02 -1.0880380458261E-01 -8.0726958318530E-02
180  1.7900000000000E+00  1.9610412775201E-02 -1.0057689681636E-01 -8.5252917639901E-02
181  1.8000000000000E+00  1.8708724555943E-02 -9.2421755328100E-02 -8.7826728463995E-02
182  1.8100000000000E+00  1.7662604381320E-02 -8.4381695183610E-02 -8.8629292409979E-02
183  1.8200000000000E+00  1.6497221339984E-02 -7.6501054505612E-02 -8.7843574342221E-02
184  1.8300000000000E+00  1.5238637240174E-02 -6.8824734526657E-02 -8.5653260921939E-02
185  1.8400000000000E+00  1.3913428526730E-02 -6.1397645153999E-02 -8.2241560217724E-02
186  1.8500000000000E+00  1.2548277707588E-02 -5.4264065640254E-02 -7.7790145042158E-02
187  1.8600000000000E+00  1.1169540040337E-02 -4.7466932115420E-02 -7.2478238067244E-02
188  1.8700000000000E+00  9.8028113920807E-03 -4.1047118699422E-02 -6.6481749319599E-02
189  1.8800000000000E+00  8.4723128215138E-03 -3.5042206969525E-02 -5.9973282336410E-02
190  1.8900000000000E+00  7.2008532361369E-03 -2.9486809244147E-02 -5.3119752217609E-02
191  1.9000000000000E+00  6.0088791656681E-03 -2.4410395834893E-02 -4.6084051849484E-02
192  1.9100000000000E+00  4.9053425390495E-03 -1.9812826650024E-02 -3.9062107299982E-02
193  1.9200000000000E+00  3.8809122411905E-03 -1.5646189031701E-02 -3.2310025613662E-02
194  1.9300000000000E+00  2.9548445191189E-03 -1.1942628940514E-02 -2.5940285220243E-02
195  1.9400000000000E+00  2.1457464431972E-03 -8.7352174851076E-03 -2.0045834671557E-02
196  1.9500000000000E+00  1.4656826640896E-03 -6.0421868370876E-03 -1.4723902166992E-02
197  1.9600000000000E+00  9.2104746844922E-04 -3.8695136145266E-03 -1.0070897065677E-02
198  1.9700000000000E+00  5.1210384651584E-04 -2.2099573434022E-03 -6.1843169253174E-03
199  1.9800000000000E+00  2.3255648637478E-04 -1.0414663311379E-03 -3.1583975710607E-03
200  1.9900000000000E+00  6.9449958721638E-05 -3.2732752536673E-04 -1.0867214221847E-03
201  2.0000000000000E+00  6.2931503884936E-06 -3.2834049085368E-05 -1.2724593090183E-04
202  2.0100000000000E+00 -2.1000579830647E-06  1.0652416416973E-05  3.8282667073086E-05
203  2.0200000000000E+00  6.9182087279308E-07 -3.3931567583187E-06 -1.1765909978412E-05
204  2.03 -0.  0.  0.
205  2.04 -0.  0.  0.
206  2.05  0. -0.  0.
207  2.06  0.  0.  0.
208  2.07  0.  0.  0.
209  2.08  0.  0.  0.
210  2.09  0.  0.  0.
211  2.10  0.  0.  0.
212  2.11  0.  0.  0.
213  2.12  0.  0.  0.
214  2.13  0.  0.  0.
215  2.14  0.  0.  0.
216  2.15  0.  0.  0.
217  2.16  0.  0.  0.
218  2.17  0.  0.  0.
219  2.18  0.  0.  0.
220  2.19  0.  0.  0.
221  2.20  0.  0.  0.
222  2.21  0.  0.  0.
223  2.22  0.  0.  0.
224  2.23  0.  0.  0.
225  2.24  0.  0.  0.
226  2.25  0.  0.  0.
227  2.26  0.  0.  0.
228  2.27  0.  0.  0.
229  2.28  0.  0.  0.
230  2.29  0.  0.  0.
231  2.30  0.  0.  0.
232  2.31  0.  0.  0.
233  2.32  0.  0.  0.
234  2.33  0.  0.  0.
235  2.34  0.  0.  0.
236  2.35  0.  0.  0.
237  2.36  0.  0.  0.
238  2.37  0.  0.  0.
239  2.38  0.  0.  0.
240  2.39  0.  0.  0.
241  2.40  0.  0.  0.
242  2.41  0.  0.  0.
243  2.42  0.  0.  0.
244  2.43  0.  0.  0.
245  2.44  0.  0.  0.
246  2.45  0.  0.  0.
247  2.46  0.  0.  0.
248  2.47  0.  0.  0.
249  2.48  0.  0.  0.
250  2.49  0.  0.  0.
251  2.50  0.  0.  0.
252  2.51  0.  0.  0.
253  2.52  0.  0.  0.
254  2.53  0.  0.  0.
255  2.54  0.  0.  0.
256  2.55  0.  0.  0.
257  2.56  0.  0.  0.
258  2.57  0.  0.  0.
259  2.58  0.  0.  0.
260  2.59  0.  0.  0.
261  2.60  0.  0.  0.
262  2.61  0.  0.  0.
263  2.62  0.  0.  0.
264  2.63  0.  0.  0.
265  2.64  0.  0.  0.
266  2.65  0.  0.  0.
267  2.66  0.  0.  0.
268  2.67  0.  0.  0.
269  2.68  0.  0.  0.
270  2.69  0.  0.  0.
271  2.70  0.  0.  0.
272  2.71  0.  0.  0.
273  2.72  0.  0.  0.
274  2.73  0.  0.  0.
275  2.74  0.  0.  0.
276  2.75  0.  0.  0.
277  2.76  0.  0.  0.
278  2.77  0.  0.  0.
279  2.78  0.  0.  0.
280  2.79  0.  0.  0.
281  2.80  0.  0.  0.
282  2.81  0.  0.  0.
283  2.82  0.  0.  0.
284  2.83  0.  0.  0.
285  2.84  0.  0.  0.
286  2.85  0.  0.  0.
287  2.86  0.  0.  0.
288  2.87  0.  0.  0.
289  2.88  0.  0.  0.
290  2.89  0.  0.  0.
291  2.90  0.  0.  0.
292  2.91  0.  0.  0.
293  2.92  0.  0.  0.
294  2.93  0.  0.  0.
295  2.94  0.  0.  0.
296  2.95  0.  0.  0.
297  2.96  0.  0.  0.
298  2.97  0.  0.  0.
299  2.98  0.  0.  0.
300  2.99  0.  0.  0.
301  3.00  0.  0.  0.
302  3.01  0.  0.  0.
303  3.02  0.  0.  0.
304  3.03  0.  0.  0.
305  3.04  0.  0.  0.
306  3.05  0.  0.  0.
307  3.06  0.  0.  0.
308  3.07  0.  0.  0.
309  3.08  0.  0.  0.
310  3.09  0.  0.  0.
311  3.10  0.  0.  0.
312  3.11  0.  0.  0.
313  3.12  0.  0.  0.
314  3.13  0.  0.  0.
315  3.14  0.  0.  0.
316  3.15  0.  0.  0.
317  3.16  0.  0.  0.
318  3.17  0.  0.  0.
319  3.18  0.  0.  0.
320  3.19  0.  0.  0.
321  3.20  0.  0.  0.
322  3.21  0.  0.  0.
323  3.22  0.  0.  0.
324  3.23  0.  0.  0.
325  3.24  0.  0.  0.
326  3.25  0.  0.  0.
327  3.26  0.  0.  0.
328  3.27  0.  0.  0.
329  3.28  0.  0.  0.
330  3.29  0.  0.  0.
331  3.30  0.  0.  0.
332  3.31  0.  0.  0.
333  3.32  0.  0.  0.
334  3.33  0.  0.  0.
335  3.34  0.  0.  0.
336  3.35  0.  0.  0.
337  3.36  0.  0.  0.
338  3.37  0.  0.  0.
339  3.38  0.  0.  0.
340  3.39  0.  0.  0.
341  3.40  0.  0.  0.
342  3.41  0.  0.  0.
343  3.42  0.  0.  0.
344  3.43  0.  0.  0.
345  3.44  0.  0.  0.
346  3.45  0.  0.  0.
347  3.46  0.  0.  0.
348  3.47  0.  0.  0.
349  3.48  0.  0.  0.
350  3.49  0.  0.  0.
351  3.50  0.  0.  0.
352  3.51  0.  0.  0.
353  3.52  0.  0.  0.
354  3.53  0.  0.  0.
355  3.54  0.  0.  0.
356  3.55  0.  0.  0.
357  3.56  0.  0.  0.
358  3.57  0.  0.  0.
359  3.58  0.  0.  0.
360  3.59  0.  0.  0.
361  3.60  0.  0.  0.
362  3.61  0.  0.  0.
363  3.62  0.  0.  0.
364  3.63  0.  0.  0.
365  3.64  0.  0.  0.
366  3.65  0.  0.  0.
367  3.66  0.  0.  0.
368  3.67  0.  0.  0.
369  3.68  0.  0.  0.
370  3.69  0.  0.  0.
371  3.70  0.  0.  0.
372  3.71  0.  0.  0.
373  3.72  0.  0.  0.
374  3.73  0.  0.  0.
375  3.74  0.  0.  0.
376  3.75  0.  0.  0.
377  3.76  0.  0.  0.
378  3.77  0.  0.  0.
379  3.78  0.  0.  0.
380  3.79  0.  0.  0.
381  3.80  0.  0.  0.
382  3.81  0.  0.  0.
383  3.82  0.  0.  0.
384  3.83  0.  0.  0.
385  3.84  0.  0.  0.
386  3.85  0.  0.  0.
387  3.86  0.  0.  0.
388  3.87  0.  0.  0.
389  3.88  0.  0.  0.
390  3.89  0.  0.  0.
391  3.90  0.  0.  0.
392  3.91  0.  0.  0.
393  3.92  0.  0.  0.
394  3.93  0.  0.  0.
395  3.94  0.  0.  0.
396  3.95  0.  0.  0.
397  3.96  0.  0.  0.
398  3.97  0.  0.  0.
399  3.98  0.  0.  0.
400  3.99  0.  0.  0.
401  4.00  0.  0.  0.
402  4.01  0.  0.  0.
403  4.02  0.  0.  0.
404  4.03  0.  0.  0.
405  4.04  0.  0.  0.
406  4.05  0.  0.  0.
407  4.06  0.  0.  0.
408  4.07  0.  0.  0.
409  4.08  0.  0.  0.
410  4.09  0.  0.  0.
411  4.10  0.  0.  0.
412  4.11  0.  0.  0.
413  4.12  0.  0.  0.
414  4.13  0.  0.  0.
415  4.14  0.  0.  0.
416  4.15  0.  0.  0.
417  4.16  0.  0.  0.
418  4.17  0.  0.  0.
419  4.18  0.  0.  0.
420  4.19  0.  0.  0.
421  4.20  0.  0.  0.
422  4.21  0.  0.  0.
423  4.22  0.  0.  0.
424  4.23  0.  0.  0.
425  4.24  0.  0.  0.
426  4.25  0.  0.  0.
427  4.26  0.  0.  0.
428  4.27  0.  0.  0.
429  4.28  0.  0.  0.
430  4.29  0.  0.  0.
431  4.30  0.  0.  0.
432  4.31  0.  0.  0.
433  4.32  0.  0.  0.
434  4.33  0.  0.  0.
435  4.34  0.  0.  0.
436  4.35  0.  0.  0.
437  4.36  0.  0.  0.
438  4.37  0.  0.  0.
439  4.38  0.  0.  0.
440  4.39  0.  0.  0.
441  4.40  0.  0.  0.
442  4.41  0.  0.  0.
443  4.42  0.  0.  0.
444  4.43  0.  0.  0.
445  4.44  0.  0.  0.
446  4.45  0.  0.  0.
447  4.46  0.  0.  0.
448  4.47  0.  0.  0.
449  4.48  0.  0.  0.
450  4.49  0.  0.  0.
451  4.50  0.  0.  0.
452  4.51  0.  0.  0.
453  4.52  0.  0.  0.
454  4.53  0.  0.  0.
455  4.54  0.  0.  0.
456  4.55  0.  0.  0.
457  4.56  0.  0.  0.
458  4.57  0.  0.  0.
459  4.58  0.  0.  0.
460  4.59  0.  0.  0.
461  4.60  0.  0.  0.
462  4.61  0.  0.  0.
463  4.62  0.  0.  0.
464  4.63  0.  0.  0.
465  4.64  0.  0.  0.
466  4.65  0.  0.  0.
467  4.66  0.  0.  0.
468  4.67  0.  0.  0.
469  4.68  0.  0.  0.
470  4.69  0.  0.  0.
471  4.70  0.  0.  0.
472  4.71  0.  0.  0.
473  4.72  0.  0.  0.
474  4.73  0.  0.  0.
475  4.74  0.  0.  0.
476  4.75  0.  0.  0.
477  4.76  0.  0.  0.
478  4.77  0.  0.  0.
479  4.78  0.  0.  0.
480  4.79  0.  0.  0.
481  4.80  0.  0.  0.
482  4.81  0.  0.  0.
483  4.82  0.  0.  0.
484  4.83  0.  0.  0.
485  4.84  0.  0.  0.
486  4.85  0.  0.  0.
487  4.86  0.  0.  0.
488  4.87  0.  0.  0.
489  4.88  0.  0.  0.
490  4.89  0.  0.  0.
491  4.90  0.  0.  0.
492  4.91  0.  0.  0.
493  4.92  0.  0.  0.
494  4.93  0.  0.  0.
495  4.94  0.  0.  0.
496  4.95  0.  0.  0.
497  4.96  0.  0.  0.
498  4.97  0.  0.  0.
499  4.98  0.  0.  0.
500  4.99  0.  0.  0.
501  5.00  0.  0.  0.
502  5.01  0.  0.  0.
503  5.02  0.  0.  0.
504  5.03  0.  0.  0.
505  5.04  0.  0.  0.
506  5.05  0.  0.  0.
507  5.06  0.  0.  0.
508  5.07  0.  0.  0.
509  5.08  0.  0.  0.
510  5.09  0.  0.  0.
511  5.10  0.  0.  0.
512  5.11  0.  0.  0.
513  5.12  0.  0.  0.
514  5.13  0.  0.  0.
515  5.14  0.  0.  0.
516  5.15  0.  0.  0.
517  5.16  0.  0.  0.
518  5.17  0.  0.  0.
519  5.18  0.  0.  0.
520  5.19  0.  0.  0.
521  5.20  0.  0.  0.
522  5.21  0.  0.  0.
523  5.22  0.  0.  0.
524  5.23  0.  0.  0.
525  5.24  0.  0.  0.
526  5.25  0.  0.  0.
527  5.26  0.  0.  0.
528  5.27  0.  0.  0.
529  5.28  0.  0.  0.
530  5.29  0.  0.  0.
531  5.30  0.  0.  0.
532  5.31  0.  0.  0.
533  5.32  0.  0.  0.
534  5.33  0.  0.  0.
535  5.34  0.  0.  0.
536  5.35  0.  0.  0.
537  5.36  0.  0.  0.
538  5.37  0.  0.  0.
539  5.38  0.  0.  0.
540  5.39  0.  0.  0.
541  5.40  0.  0.  0.
542  5.41  0.  0.  0.
543  5.42  0.  0.  0.
544  5.43  0.  0.  0.
545  5.44  0.  0.  0.
546  5.45  0.  0.  0.
547  5.46  0.  0.  0.
548  5.47  0.  0.  0.
549  5.48  0.  0.  0.
550  5.49  0.  0.  0.
551  5.50  0.  0.  0.
552  5.51  0.  0.  0.
553  5.52  0.  0.  0.
554  5.53  0.  0.  0.
555  5.54  0.  0.  0.
556  5.55  0.  0.  0.
557  5.56  0.  0.  0.
558  5.57  0.  0.  0.
559  5.58  0.  0.  0.
560  5.59  0.  0.  0.
561  5.60  0.  0.  0.
562  5.61  0.  0.  0.
563  5.62  0.  0.  0.
564  5.63  0.  0.  0.
565  5.64  0.  0.  0.
566  5.65  0.  0.  0.
567  5.66  0.  0.  0.
568  5.67  0.  0.  0.
569  5.68  0.  0.  0.
570  5.69  0.  0.  0.
571  5.70  0.  0.  0.
572  5.71  0.  0.  0.
573  5.72  0.  0.  0.
574  5.73  0.  0.  0.
575  5.74  0.  0.  0.
576  5.75  0.  0.  0.
577  5.76  0.  0.  0.
578  5.77  0.  0.  0.
579  5.78  0.  0.  0.
580  5.79  0.  0.  0.
581  5.80  0.  0.  0.
582  5.81  0.  0.  0.
583  5.82  0.  0.  0.
584  5.83  0.  0.  0.
585  5.84  0.  0.  0.
586  5.85  0.  0.  0.
587  5.86  0.  0.  0.
588  5.87  0.  0.  0.
589  5.88  0.  0.  0.
590  5.89  0.  0.  0.
591  5.90  0.  0.  0.
592  5.91  0.  0.  0.
593  5.92  0.  0.  0.
594  5.93  0.  0.  0.
595  5.94  0.  0.  0.
596  5.95  0.  0.  0.
597  5.96  0.  0.  0.
598  5.97  0.  0.  0.
599  5.98  0.  0.  0.
600  5.99  0.  0.  0.
1                         6.5052078018079E+00  6.1474195583886E-01
1  0.0000000000000E+00  8.7752346084047E-09 -4.0771057335798E-08
2  1.0000000000000E-02  1.1965368759486E-03 -2.8140613387086E-03
3  2.0000000000000E-02  4.7723846431077E-03 -1.1195256891140E-02
4  3.0000000000000E-02  1.0686517641877E-02 -2.4961851672979E-02
5  4.0000000000000E-02  1.8871431027543E-02 -4.3815031492741E-02
6  5.0000000000000E-02  2.9234429712946E-02 -6.7344935903075E-02
7  6.0000000000000E-02  4.1659397360461E-02 -9.5038939500591E-02
8  7.0000000000000E-02  5.6009010707893E-02 -1.2629202047633E-01
9  8.0000000000000E-02  7.2127355737614E-02 -1.6041901454797E-01
10  9.0000000000000E-02  8.9842894251799E-02 -1.9666851544441E-01
11  1.0000000000000E-01  1.0897172245120E-01 -2.3423815066536E-01
12  1.1000000000000E-01  1.2932105726494E-01 -2.7229093392221E-01
13  1.2000000000000E-01  1.5069288155835E-01 -3.0997237400726E-01
14  1.3000000000000E-01  1.7288767604554E-01 -3.4642800425779E-01
15  1.4000000000000E-01  1.9570816382007E-01 -3.8082098758769E-01
16  1.5000000000000E-01  2.1896299293174E-01 -4.1234944944542E-01
17  1.6000000000000E-01  2.4247028339315E-01 -4.4026319509010E-01
18  1.7000000000000E-01  2.6606096738536E-01 -4.6387947820578E-01
19  1.8000000000000E-01  2.8958185520607E-01 -4.8259750491841E-01
20  1.9000000000000E-01  3.1289836460162E-01 -4.9591138044484E-01
21  2.0000000000000E-01  3.3589685745401E-01 -5.0342123447469E-01
22  2.1000000000000E-01  3.5848653524202E-01 -5.0484229544436E-01
23  2.2000000000000E-01  3.8060085312467E-01 -5.0001172248732E-01
24  2.3000000000000E-01  4.0219842175009E-01 -4.8889304632785E-01
25  2.4000000000000E-01  4.2326337580303E-01 -4.7157811594356E-01
26  2.5000000000000E-01  4.4380519868246E-01 -4.4828649560922E-01
27  2.6000000000000E-01  4.6385800335349E-01 -4.1936230605818E-01
28  2.7000000000000E-01  4.8347928014373E-01 -3.8526855303741E-01
29  2.8000000000000E-01  5.0274813284722E-01 -3.4657903555046E-01
30  2.9000000000000E-01  5.2176303475844E-01 -3.0396797364858E-01
31  3.0000000000000E-01  5.4063914598434E-01 -2.5819754083261E-01
32  3.1000000000000E-01  5.5950524238469E-01 -2.1010352809440E-01
33  3.2000000000000E-01  5.7850031459335E-01 -1.6057940453777E-01
34  3.3000000000000E-01  5.9776990261135E-01 -1.1055907262726E-01
35  3.4000000000000E-01  6.1746223729629E-01 -6.0998643754875E-02
36  3.5000000000000E-01  6.3772426457653E-01 -1.2857581423706E-02
37  3.6000000000000E-01  6.5869763129835E-01  3.2920425533717E-02
38  3.7000000000000E-01  6.8051471319540E-01  7.5426488994146E-02
39  3.8000000000000E-01  7.0329476550974E-01  1.1380507488291E-01
40  3.9000000000000E-01  7.2714027527738E-01  1.4727171773253E-01
41  4.0000000000000E-01  7.5213359123143E-01  1.7512954332687E-01
42  4.1000000000000E-01  7.7833390271761E-01  1.9678426613186E-01
43  4.2000000000000E-01  8.0577463303130E-01  2.1175735461685E-01
44  4.3000000000000E-01  8.3446130527290E-01  2.1969709010005E-01
45  4.4000000000000E-01  8.6436993030563E-01  2.2038728284011E-01
46  4.5000000000000E-01  8.9544595683741E-01  2.1375345206993E-01