Eu    ONCVPSP-4.0.1  r_core=   2.01108   1.60216   1.90567   1.35507
63.0000     17.0000      241104    zatom,zion,pspd
8      11   3     4   600     0    pspcod,pspxc,lmax,lloc,mmax,r2well
5.99000000  4.00000000  0.00000000    rchrg fchrg qchrg
3     2     2     2     0    nproj
1     1           extension_switch
0                         1.2278495405932E+01  2.5973539281858E+00  4.8595398496808E-01
1  0.0000000000000E+00 -7.9312584277957E-10  2.0342996176481E-09 -3.3115127862082E-09
2  1.0000000000000E-02  4.8485769327174E-02 -2.8294455860918E-02  4.6947042711761E-02
3  2.0000000000000E-02  9.6837571487172E-02 -5.6278042676432E-02  9.3362828050867E-02
4  3.0000000000000E-02  1.4492278077959E-01 -8.3643574902732E-02  1.3872243930279E-01
5  4.0000000000000E-02  1.9261143756319E-01 -1.1009118932868E-01  1.8251356648251E-01
6  5.0000000000000E-02  2.3977753930360E-01 -1.3533189508903E-01  2.2424262408341E-01
7  6.0000000000000E-02  2.8630028181195E-01 -1.5909099175289E-01  2.6344064846085E-01
8  7.0000000000000E-02  3.3206523501308E-01 -1.8111131392729E-01  2.9966890532457E-01
9  8.0000000000000E-02  3.7696543837547E-01 -2.0115626285002E-01  3.3252414112570E-01
10  9.0000000000000E-02  4.2090240210951E-01 -2.1901258794756E-01  3.6164341619805E-01
11  1.0000000000000E-01  4.6378700138565E-01 -2.3449288427193E-01  3.8670846230024E-01
12  1.1000000000000E-01  5.0554025212600E-01 -2.4743777507533E-01  4.0744951265873E-01
13  1.2000000000000E-01  5.4609395836678E-01 -2.5771775249210E-01  4.2364855866566E-01
14  1.3000000000000E-01  5.8539122275877E-01 -2.6523465333623E-01  4.3514199397959E-01
15  1.4000000000000E-01  6.2338681344992E-01 -2.6992275133984E-01  4.4182261383382E-01
16  1.5000000000000E-01  6.6004738236002E-01 -2.7174945170961E-01  4.4364094480333E-01
17  1.6000000000000E-01  6.9535153168908E-01 -2.7071557860616E-01  4.4060588802812E-01
18  1.7000000000000E-01  7.2928972738119E-01 -2.6685525100943E-01  4.3278466686011E-01
19  1.8000000000000E-01  7.6186406016838E-01 -2.6023534735961E-01  4.2030207799748E-01
20  1.9000000000000E-01  7.9308785672386E-01 -2.5095456430426E-01  4.0333905330492E-01
21  2.0000000000000E-01  8.2298514533815E-01 -2.3914207977912E-01  3.8213054759875E-01
22  2.1000000000000E-01  8.5158998237302E-01 -2.2495583545093E-01  3.5696277561723E-01
23  2.2000000000000E-01  8.7894564752234E-01 -2.0858045818833E-01  3.2816982909083E-01
24  2.3000000000000E-01  9.0510371759821E-01 -1.9022484466103E-01  2.9612971220969E-01
25  2.4000000000000E-01  9.3012303013981E-01 -1.7011943733003E-01  2.6125984074450E-01
26  2.5000000000000E-01  9.5406854959679E-01 -1.4851322394875E-01  2.2401205655871E-01
27  2.6000000000000E-01  9.7701015014409E-01 -1.2567049618032E-01  1.8486721514525E-01
28  2.7000000000000E-01  9.9902133033146E-01 -1.0186740602906E-01  1.4432940909412E-01
29  2.8000000000000E-01  1.0201778757358E+00 -7.7388361422432E-02  1.0291989494927E-01
30  2.9000000000000E-01  1.0405564865620E+00 -5.2522304450642E-02  6.1170794718044E-02
31  3.0000000000000E-01  1.0602333877116E+00 -2.7558917427518E-02  1.9618646278568E-02
32  3.1000000000000E-01  1.0792829392019E+00 -2.7848030687028E-03 -2.1202120929976E-02
33  3.2000000000000E-01  1.0977762649672E+00  2.1520314332284E-02 -6.0765707292153E-02
34  3.3000000000000E-01  1.1157799179982E+00  4.5087319827530E-02 -9.8561383487996E-02
35  3.4000000000000E-01  1.1333545994839E+00  6.7661324465071E-02 -1.3409977261228E-01
36  3.5000000000000E-01  1.1505539491021E+00  8.9005122398661E-02 -1.6691889798949E-01
37  3.6000000000000E-01  1.1674234228761E+00  1.0890244483209E-01 -1.9658992309923E-01
38  3.7000000000000E-01  1.1839992740742E+00  1.2716096936299E-01 -2.2272251329330E-01
39  3.8000000000000E-01  1.2003076514872E+00  1.4361504599194E-01 -2.4496975309800E-01
40  3.9000000000000E-01  1.2163638280930E+00  1.5812810424878E-01 -2.6303255781341E-01
41  4.0000000000000E-01  1.2321715716144E+00  1.7059470953214E-01 -2.7666352380923E-01
42  4.1000000000000E-01  1.2477226668165E+00  1.8094224080983E-01 -2.8567016829251E-01
43  4.2000000000000E-01  1.2629965975954E+00  1.8913216624881E-01 -2.8991751633080E-01
44  4.3000000000000E-01  1.2779603949920E+00  1.9516089808194E-01 -2.8933000047505E-01
45  4.4000000000000E-01  1.2925686552582E+00  1.9906021301853E-01 -2.8389264634909E-01
46  4.5000000000000E-01  1.3067637300199E+00  2.0089722970646E-01 -2.7365152596784E-01
47  4.6000000000000E-01  1.3204760884534E+00  2.0077394010161E-01 -2.5871346922359E-01
48  4.7000000000000E-01  1.3336248492476E+00  1.9882629701809E-01 -2.3924503282230E-01
49  4.8000000000000E-01  1.3461184779792E+00  1.9522286556776E-01 -2.1547073487129E-01
50  4.9000000000000E-01  1.3578556434255E+00  1.9016305157432E-01 -1.8767057219957E-01
51  5.0000000000000E-01  1.3687262242873E+00  1.8387492530006E-01 -1.5617684622201E-01
52  5.1000000000000E-01  1.3786124558369E+00  1.7661266389115E-01 -1.2137033164540E-01
53  5.2000000000000E-01  1.3873902041568E+00  1.6865364075749E-01 -8.3675830434002E-02
54  5.3000000000000E-01  1.3949303539218E+00  1.6029519460070E-01 -4.3557161119018E-02
55  5.4000000000000E-01  1.4011002941253E+00  1.5185111492687E-01 -1.5116406457977E-03
56  5.5000000000000E-01  1.4057654847830E+00  1.4364788457075E-01  4.1935877593164E-02
57  5.6000000000000E-01  1.4087910864726E+00  1.3602072297670E-01  8.6239340156224E-02
58  5.7000000000000E-01  1.4100436336200E+00  1.2930947666772E-01  1.3083813008817E-01
59  5.8000000000000E-01  1.4093927317206E+00  1.2385440546707E-01  1.7516392525029E-01
60  5.9000000000000E-01  1.4067127582086E+00  1.1999191457010E-01  2.1864769699735E-01
61  6.0000000000000E-01  1.4018845464631E+00  1.1805028348774E-01  2.6072676561306E-01
62  6.1000000000000E-01  1.3947970324748E+00  1.1834544316813E-01  3.0085182779695E-01
63  6.2000000000000E-01  1.3853488439877E+00  1.2117685225068E-01  3.3849387140123E-01
64  6.3000000000000E-01  1.3734498124853E+00  1.2682352241478E-01  3.7315089356034E-01
65  6.4000000000000E-01  1.3590223891923E+00  1.3554024116273E-01  4.0435434033284E-01
66  6.5000000000000E-01  1.3420029473138E+00  1.4755403813546E-01  4.3167518897146E-01
67  6.6000000000000E-01  1.3223429540177E+00  1.6306093824027E-01  4.5472959790164E-01
68  6.7000000000000E-01  1.3000099971634E+00  1.8222304148734E-01  4.7318405440251E-01
69  6.8000000000000E-01  1.2749886534850E+00  2.0516596554250E-01  4.8675995576732E-01
70  6.9000000000000E-01  1.2472811868121E+00  2.3197668265194E-01  4.9523756631145E-01
71  7.0000000000000E-01  1.2169080669462E+00  2.6270177783340E-01  4.9845929991712E-01
72  7.1000000000000E-01  1.1839083019760E+00  2.9734615012499E-01  4.9633228575532E-01
73  7.2000000000000E-01  1.1483395790709E+00  3.3587217330107E-01  4.8883018331470E-01
74  7.3000000000000E-01  1.1102782111308E+00  3.7819932687372E-01  4.7599422178703E-01
75  7.4000000000000E-01  1.0698188890359E+00  4.2420430248476E-01  4.5793344807992E-01
76  7.5000000000000E-01  1.0270742416211E+00  4.7372158501432E-01  4.3482417716159E-01
77  7.6000000000000E-01  9.8217420784711E-01  5.2654450198919E-01  4.0690864793231E-01
78  7.7000000000000E-01  9.3526522793484E-01  5.8242672922596E-01  3.7449289727205E-01
79  7.8000000000000E-01  8.8650926242932E-01  6.4108423518247E-01  3.3794387418898E-01
80  7.9000000000000E-01  8.3608265023830E-01  7.0219764128168E-01  2.9768582498492E-01
81  8.0000000000000E-01  7.8417481861843E-01  7.6541497059306E-01  2.5419598893566E-01
82  8.1000000000000E-01  7.3098685983096E-01  8.3035475276949E-01  2.0799965205792E-01
83  8.2000000000000E-01  6.7672999073237E-01  8.9660944910944E-01  1.5966461398683E-01
84  8.3000000000000E-01  6.2162391288460E-01  9.6374915809463E-01  1.0979512973912E-01
85  8.4000000000000E-01  5.6589509184345E-01  1.0313255587884E+00  5.9025394102256E-02
86  8.5000000000000E-01  5.0977497509458E-01  1.0988760471192E+00  8.0126414880202E-03
87  8.6000000000000E-01  4.5349816865146E-01  1.1659280183214E+00 -4.2570061702483E-02
88  8.7000000000000E-01  3.9730059258859E-01  1.2320032477153E+00 -9.2041251925387E-02
89  8.8000000000000E-01  3.4141763576652E-01  1.2966223215516E+00 -1.3971864799910E-01
90  8.9000000000000E-01  2.8608232970584E-01  1.3593090698476E+00 -1.8492679143934E-01
91  9.0000000000000E-01  2.3152356099259E-01  1.4195949539832E+00 -2.2700466350721E-01
92  9.1000000000000E-01  1.7796434076418E-01  1.4770233632647E+00 -2.6531319551161E-01
93  9.2000000000000E-01  1.2562014873919E-01  1.5311537766970E+00 -2.9924259051049E-01
94  9.3000000000000E-01  7.4697367942517E-02  1.5815657487622E+00 -3.2821937702658E-01
95  9.4000000000000E-01  2.5391824760405E-02  1.6278626810429E+00 -3.5171311868063E-01
96  9.5000000000000E-01 -2.2112552735460E-02  1.6696753449860E+00 -3.6924270767263E-01
97  9.6000000000000E-01 -6.7644947098134E-02  1.7066651249077E+00 -3.8038217472735E-01
98  9.7000000000000E-01 -1.1104872530844E-01  1.7385269544189E+00 -3.8476595335960E-01
99  9.8000000000000E-01 -1.5218236696520E-01  1.7649919237151E+00 -3.8209354202937E-01
100  9.9000000000000E-01 -1.9092024183027E-01  1.7858295395506E+00 -3.7213351381696E-01
101  1.0000000000000E+00 -2.2715323377384E-01  1.8008496241042E+00 -3.5472682957838E-01
102  1.0100000000000E+00 -2.6078921020430E-01  1.8099038432701E+00 -3.2978941701560E-01
103  1.0200000000000E+00 -2.9175333803036E-01  1.8128868590730E+00 -2.9731398463702E-01
104  1.0300000000000E+00 -3.1998824905319E-01  1.8097371048430E+00 -2.5737104609360E-01
105  1.0400000000000E+00 -3.4545405938378E-01  1.8004371854027E+00 -2.1010913677601E-01
106  1.0500000000000E+00 -3.6812824899940E-01  1.7850139077674E+00 -1.5575421080707E-01
107  1.0600000000000E+00 -3.8800540885149E-01  1.7635379506539E+00 -9.4608212584193E-02
108  1.0700000000000E+00 -4.0509686400341E-01  1.7361231834170E+00 -2.7046822843536E-02
109  1.0800000000000E+00 -4.1943018207530E-01  1.7029256468276E+00  4.6483615206672E-02
110  1.0900000000000E+00 -4.3104857680370E-01  1.6641422093719E+00  1.2546997873253E-01
111  1.1000000000000E+00 -4.4001021676221E-01  1.6200089134767E+00  2.0933704087224E-01
112  1.1100000000000E+00 -4.4638744925220E-01  1.5707990262875E+00  2.9745291759278E-01
113  1.1200000000000E+00 -4.5026594904905E-01  1.5168208093642E+00  3.8913525891638E-01
114  1.1300000000000E+00 -4.5174380111124E-01  1.4584150210091E+00  4.8365815193356E-01
115  1.1400000000000E+00 -4.5093052554038E-01  1.3959521639683E+00  5.8025969676295E-01
116  1.1500000000000E+00 -4.4794605206589E-01  1.3298294900939E+00  6.7815020956890E-01
117  1.1600000000000E+00 -4.4291965015584E-01  1.2604677723501E+00  7.7652099851840E-01
118  1.1700000000000E+00 -4.3598881959576E-01  1.1883078534913E+00  8.7455364885131E-01
119  1.1800000000000E+00 -4.2729814508833E-01  1.1138069800300E+00  9.7142974147644E-01
120  1.1900000000000E+00 -4.1699811720877E-01  1.0374349300039E+00  1.0663409154141E+00
121  1.2000000000000E+00 -4.0524392098485E-01  9.5966994383470E-01  1.1584991671059E+00
122  1.2100000000000E+00 -3.9219419258843E-01  8.8099446954846E-01  1.2471472588684E+00
123  1.2200000000000E+00 -3.7800974424013E-01  8.0189073718665E-01  1.3315690835075E+00
124  1.2300000000000E+00 -3.6285225760085E-01  7.2283618277770E-01  1.4110998018034E+00
125  1.2400000000000E+00 -3.4688294679830E-01  6.4429875016147E-01  1.4851355334586E+00
126  1.2500000000000E+00 -3.3026119402459E-01  5.6673210989726E-01  1.5531423387917E+00
127  1.2600000000000E+00 -3.1314316350667E-01  4.9057084879127E-01  1.6146641776760E+00
128  1.2700000000000E+00 -2.9568040384539E-01  4.1622570201332E-01  1.6693294722758E+00
129  1.2800000000000E+00 -2.7801845449695E-01  3.4407892299591E-01  1.7168558299160E+00
130  1.2900000000000E+00 -2.6029547974895E-01  2.7447991485180E-01  1.7570524011859E+00
131  1.3000000000000E+00 -2.4264096327429E-01  2.0774128191867E-01  1.7898192540484E+00
132  1.3100000000000E+00 -2.2517450855272E-01  1.4413550205939E-01  1.8151430360035E+00
133  1.3200000000000E+00 -2.0800480543725E-01  8.3892470297931E-02  1.8330880719504E+00
134  1.3300000000000E+00 -1.9122884128203E-01  2.7198223232554E-02  1.8437819035630E+00
135  1.3400000000000E+00 -1.7493145721036E-01 -2.5804775607227E-02  1.8473940939673E+00
136  1.3500000000000E+00 -1.5918537217744E-01 -7.5015346821054E-02  1.8441072667090E+00
137  1.3600000000000E+00 -1.4405184514064E-01 -1.2036868486211E-01  1.8340774647132E+00
138  1.3700000000000E+00 -1.2958171051608E-01 -1.6183031757305E-01  1.8174217172929E+00
139  1.3800000000000E+00 -1.1581574433523E-01 -1.9939419802283E-01  1.7942807098947E+00
140  1.3900000000000E+00 -1.0278492289818E-01 -2.3308212454671E-01  1.7648474649813E+00
141  1.4000000000000E+00 -9.0510942239509E-02 -2.6294218896001E-01  1.7293635894319E+00
142  1.4100000000000E+00 -7.9006797734828E-02 -2.8904705707479E-01  1.6881161545885E+00
143  1.4200000000000E+00 -6.8277420422096E-02 -3.1149207790145E-01  1.6414339468168E+00
144  1.4300000000000E+00 -5.8320357417086E-02 -3.3039325648476E-01  1.5896834344840E+00
145  1.4400000000000E+00 -4.9126485307637E-02 -3.4588511955975E-01  1.5332644826757E+00
146  1.4500000000000E+00 -4.0680745440152E-02 -3.5811850342362E-01  1.4726058667207E+00
147  1.4600000000000E+00 -3.2962890230917E-02 -3.6725829318274E-01  1.4081606367374E+00
148  1.4700000000000E+00 -2.5948230022830E-02 -3.7348114183204E-01  1.3404013850755E+00
149  1.4800000000000E+00 -1.9608370514146E-02 -3.7697319664381E-01  1.2698154682062E+00
150  1.4900000000000E+00 -1.3911931426515E-02 -3.7792785899197E-01  1.1969002333055E+00
151  1.5000000000000E+00 -8.8252378194104E-03 -3.7654360214004E-01  1.1221582982824E+00
152  1.5100000000000E+00 -4.3129763164166E-03 -3.7302186956577E-01  1.0460929313969E+00
153  1.5200000000000E+00 -3.3880941993718E-04 -3.6756507433123E-01  9.6920357431962E-01
154  1.5300000000000E+00  3.1340579134359E-03 -3.6037471765722E-01  8.9198154912577E-01
155  1.5400000000000E+00  6.1423642150842E-03 -3.5164964235374E-01  8.1490598612641E-01
156  1.5500000000000E+00  8.7223336910982E-03 -3.4158443423937E-01  7.3844000598929E-01
157  1.5600000000000E+00  1.0909277277930E-02 -3.3036798194824E-01  6.6302718517919E-01
158  1.5700000000000E+00  1.2737254118367E-02 -3.1818220286434E-01  5.8908832972960E-01
159  1.5800000000000E+00  1.4238793940653E-02 -3.0520094021153E-01  5.1701857787912E-01
160  1.5900000000000E+00  1.5444679807485E-02 -2.9158903372994E-01  4.4718484788288E-01
161  1.6000000000000E+00  1.6383789701142E-02 -2.7750156372671E-01  3.7992364251565E-01
162  1.6100000000000E+00  1.7082994518093E-02 -2.6308326592964E-01  3.1553921776079E-01
163  1.6200000000000E+00  1.7567109204146E-02 -2.4846811226691E-01  2.5430211882337E-01
164  1.6300000000000E+00  1.7858892988232E-02 -2.3377905050709E-01  1.9644808219404E-01
165  1.6400000000000E+00  1.7979094056191E-02 -2.1912789392577E-01  1.4217729911096E-01
166  1.6500000000000E+00  1.7946533417236E-02 -2.0461535034821E-01  9.1654031577273E-02
167  1.6600000000000E+00  1.7778222310091E-02 -1.9033117860523E-01  4.5006569160631E-02
168  1.6700000000000E+00  1.7489507129667E-02 -1.7635445912067E-01  2.3275112354897E-03
169  1.6800000000000E+00  1.7094235691023E-02 -1.6275396459635E-01 -3.6325642837311E-02
170  1.6900000000000E+00  1.6604938520396E-02 -1.4958861599961E-01 -7.0929615889525E-02
171  1.7000000000000E+00  1.6033018895729E-02 -1.3690800872430E-01 -1.0149420964393E-01
172  1.7100000000000E+00  1.5388945346973E-02 -1.2475299320701E-01 -1.2806092117384E-01
173  1.7200000000000E+00  1.4682441499929E-02 -1.1315629754805E-01 -1.5070133603606E-01
174  1.7300000000000E+00  1.3922665625079E-02 -1.0214317052831E-01 -1.6951534522851E-01
175  1.7400000000000E+00  1.3118377818468E-02 -9.1732041187138E-02 -1.8462918086972E-01
176  1.7500000000000E+00  1.2278087492451E-02 -8.1935172726739E-02 -1.9619332476741E-01
177  1.7600000000000E+00  1.1410178369545E-02 -7.2759302659778E-02 -2.0438030349974E-01
178  1.7700000000000E+00  1.0523007433201E-02 -6.4206257694059E-02 -2.0938239727189E-01
179  1.7800000000000E+00  9.6249749360986E-03 -5.6273533031192E-02 -2.1140928944869E-01
180  1.7900000000000E+00  8.7245635431744E-03 -4.8954828036000E-02 -2.1068568001555E-01
181  1.8000000000000E+00  7.8303452902272E-03 -4.2240531285168E-02 -2.0744888632737E-01
182  1.8100000000000E+00  6.9509558427251E-03 -3.6118149741009E-02 -2.0194645253871E-01
183  1.8200000000000E+00  6.0950362487471E-03 -3.0572678268917E-02 -1.9443378780000E-01
184  1.8300000000000E+00  5.2711430990511E-03 -2.5586907273277E-02 -1.8517185162790E-01
185  1.8400000000000E+00  4.4876287031824E-03 -2.1141667775078E-02 -1.7442490300782E-01
186  1.8500000000000E+00  3.7524935067935E-03 -1.7216014623263E-02 -1.6245832820977E-01
187  1.8600000000000E+00  3.0732136003828E-03 -1.3787350010692E-02 -1.4953656017637E-01
188  1.8700000000000E+00  2.4565466586991E-03 -1.0831490605507E-02 -1.3592110084356E-01
189  1.8800000000000E+00  1.9083368668270E-03 -8.3227209180561E-03 -1.2186860518140E-01
190  1.8900000000000E+00  1.4331358561077E-03 -6.2334121719592E-03 -1.0762960212381E-01
191  1.9000000000000E+00  1.0344858533632E-03 -4.5351280708084E-03 -9.3445308635018E-02
192  1.9100000000000E+00  7.1344150693751E-04 -3.1957072269593E-03 -7.9549889078277E-02
193  1.9200000000000E+00  4.5298396486329E-04 -2.1441302762668E-03 -6.6215699009951E-02
194  1.9300000000000E+00  2.3420220689077E-04 -1.3077308157492E-03 -5.3702329989541E-02
195  1.9400000000000E+00  6.5580274378531E-05 -6.7931996611521E-04 -4.2165965035886E-02
196  1.9500000000000E+00 -5.0157978788538E-05 -2.4204543541543E-04 -3.1758270614555E-02
197  1.9600000000000E+00 -1.1401354192560E-04  2.5716992872122E-05 -2.2618863255186E-02
198  1.9700000000000E+00 -1.3135494295945E-04  1.5160114696811E-04 -1.4876093287165E-02
199  1.9800000000000E+00 -1.1208782947457E-04  1.6941300304073E-04 -8.6491776521437E-03
200  1.9900000000000E+00 -6.9958901289056E-05  1.1775767273832E-04 -4.0222429245200E-03
201  2.0000000000000E+00 -2.5547883585745E-05  4.5512379478376E-05 -1.1395327458947E-03
202  2.0100000000000E+00 -1.4923915112769E-06  2.9628433991585E-06 -4.1472319589603E-05
203  2.0200000000000E+00  9.8628599434024E-07 -1.7682873080854E-06  3.6520726661320E-05
204  2.0300000000000E+00 -4.4618739271982E-07  7.9037739451995E-07 -1.8628464831975E-05
205  2.04  0. -0.  0.
206  2.05  0. -0.  0.
207  2.06  0.  0.  0.
208  2.07  0.  0.  0.
209  2.08  0.  0.  0.
210  2.09  0.  0.  0.
211  2.10  0.  0.  0.
212  2.11  0.  0.  0.
213  2.12  0.  0.  0.
214  2.13  0.  0.  0.
215  2.14  0.  0.  0.
216  2.15  0.  0.  0.
217  2.16  0.  0.  0.
218  2.17  0.  0.  0.
219  2.18  0.  0.  0.
220  2.19  0.  0.  0.
221  2.20  0.  0.  0.
222  2.21  0.  0.  0.
223  2.22  0.  0.  0.
224  2.23  0.  0.  0.
225  2.24  0.  0.  0.
226  2.25  0.  0.  0.
227  2.26  0.  0.  0.
228  2.27  0.  0.  0.
229  2.28  0.  0.  0.
230  2.29  0.  0.  0.
231  2.30  0.  0.  0.
232  2.31  0.  0.  0.
233  2.32  0.  0.  0.
234  2.33  0.  0.  0.
235  2.34  0.  0.  0.
236  2.35  0.  0.  0.
237  2.36  0.  0.  0.
238  2.37  0.  0.  0.
239  2.38  0.  0.  0.
240  2.39  0.  0.  0.
241  2.40  0.  0.  0.
242  2.41  0.  0.  0.
243  2.42  0.  0.  0.
244  2.43  0.  0.  0.
245  2.44  0.  0.  0.
246  2.45  0.  0.  0.
247  2.46  0.  0.  0.
248  2.47  0.  0.  0.
249  2.48  0.  0.  0.
250  2.49  0.  0.  0.
251  2.50  0.  0.  0.
252  2.51  0.  0.  0.
253  2.52  0.  0.  0.
254  2.53  0.  0.  0.
255  2.54  0.  0.  0.
256  2.55  0.  0.  0.
257  2.56  0.  0.  0.
258  2.57  0.  0.  0.
259  2.58  0.  0.  0.
260  2.59  0.  0.  0.
261  2.60  0.  0.  0.
262  2.61  0.  0.  0.
263  2.62  0.  0.  0.
264  2.63  0.  0.  0.
265  2.64  0.  0.  0.
266  2.65  0.  0.  0.
267  2.66  0.  0.  0.
268  2.67  0.  0.  0.
269  2.68  0.  0.  0.
270  2.69  0.  0.  0.
271  2.70  0.  0.  0.
272  2.71  0.  0.  0.
273  2.72  0.  0.  0.
274  2.73  0.  0.  0.
275  2.74  0.  0.  0.
276  2.75  0.  0.  0.
277  2.76  0.  0.  0.
278  2.77  0.  0.  0.
279  2.78  0.  0.  0.
280  2.79  0.  0.  0.
281  2.80  0.  0.  0.
282  2.81  0.  0.  0.
283  2.82  0.  0.  0.
284  2.83  0.  0.  0.
285  2.84  0.  0.  0.
286  2.85  0.  0.  0.
287  2.86  0.  0.  0.
288  2.87  0.  0.  0.
289  2.88  0.  0.  0.
290  2.89  0.  0.  0.
291  2.90  0.  0.  0.
292  2.91  0.  0.  0.
293  2.92  0.  0.  0.
294  2.93  0.  0.  0.
295  2.94  0.  0.  0.
296  2.95  0.  0.  0.
297  2.96  0.  0.  0.
298  2.97  0.  0.  0.
299  2.98  0.  0.  0.
300  2.99  0.  0.  0.
301  3.00  0.  0.  0.
302  3.01  0.  0.  0.
303  3.02  0.  0.  0.
304  3.03  0.  0.  0.
305  3.04  0.  0.  0.
306  3.05  0.  0.  0.
307  3.06  0.  0.  0.
308  3.07  0.  0.  0.
309  3.08  0.  0.  0.
310  3.09  0.  0.  0.
311  3.10  0.  0.  0.
312  3.11  0.  0.  0.
313  3.12  0.  0.  0.
314  3.13  0.  0.  0.
315  3.14  0.  0.  0.
316  3.15  0.  0.  0.
317  3.16  0.  0.  0.
318  3.17  0.  0.  0.
319  3.18  0.  0.  0.
320  3.19  0.  0.  0.
321  3.20  0.  0.  0.
322  3.21  0.  0.  0.
323  3.22  0.  0.  0.
324  3.23  0.  0.  0.
325  3.24  0.  0.  0.
326  3.25  0.  0.  0.
327  3.26  0.  0.  0.
328  3.27  0.  0.  0.
329  3.28  0.  0.  0.
330  3.29  0.  0.  0.
331  3.30  0.  0.  0.
332  3.31  0.  0.  0.
333  3.32  0.  0.  0.
334  3.33  0.  0.  0.
335  3.34  0.  0.  0.
336  3.35  0.  0.  0.
337  3.36  0.  0.  0.
338  3.37  0.  0.  0.
339  3.38  0.  0.  0.
340  3.39  0.  0.  0.
341  3.40  0.  0.  0.
342  3.41  0.  0.  0.
343  3.42  0.  0.  0.
344  3.43  0.  0.  0.
345  3.44  0.  0.  0.
346  3.45  0.  0.  0.
347  3.46  0.  0.  0.
348  3.47  0.  0.  0.
349  3.48  0.  0.  0.
350  3.49  0.  0.  0.
351  3.50  0.  0.  0.
352  3.51  0.  0.  0.
353  3.52  0.  0.  0.
354  3.53  0.  0.  0.
355  3.54  0.  0.  0.
356  3.55  0.  0.  0.
357  3.56  0.  0.  0.
358  3.57  0.  0.  0.
359  3.58  0.  0.  0.
360  3.59  0.  0.  0.
361  3.60  0.  0.  0.
362  3.61  0.  0.  0.
363  3.62  0.  0.  0.
364  3.63  0.  0.  0.
365  3.64  0.  0.  0.
366  3.65  0.  0.  0.
367  3.66  0.  0.  0.
368  3.67  0.  0.  0.
369  3.68  0.  0.  0.
370  3.69  0.  0.  0.
371  3.70  0.  0.  0.
372  3.71  0.  0.  0.
373  3.72  0.  0.  0.
374  3.73  0.  0.  0.
375  3.74  0.  0.  0.
376  3.75  0.  0.  0.
377  3.76  0.  0.  0.
378  3.77  0.  0.  0.
379  3.78  0.  0.  0.
380  3.79  0.  0.  0.
381  3.80  0.  0.  0.
382  3.81  0.  0.  0.
383  3.82  0.  0.  0.
384  3.83  0.  0.  0.
385  3.84  0.  0.  0.
386  3.85  0.  0.  0.
387  3.86  0.  0.  0.
388  3.87  0.  0.  0.
389  3.88  0.  0.  0.
390  3.89  0.  0.  0.
391  3.90  0.  0.  0.
392  3.91  0.  0.  0.
393  3.92  0.  0.  0.
394  3.93  0.  0.  0.
395  3.94  0.  0.  0.
396  3.95  0.  0.  0.
397  3.96  0.  0.  0.
398  3.97  0.  0.  0.
399  3.98  0.  0.  0.
400  3.99  0.  0.  0.
401  4.00  0.  0.  0.
402  4.01  0.  0.  0.
403  4.02  0.  0.  0.
404  4.03  0.  0.  0.
405  4.04  0.  0.  0.
406  4.05  0.  0.  0.
407  4.06  0.  0.  0.
408  4.07  0.  0.  0.
409  4.08  0.  0.  0.
410  4.09  0.  0.  0.
411  4.10  0.  0.  0.
412  4.11  0.  0.  0.
413  4.12  0.  0.  0.
414  4.13  0.  0.  0.
415  4.14  0.  0.  0.
416  4.15  0.  0.  0.
417  4.16  0.  0.  0.
418  4.17  0.  0.  0.
419  4.18  0.  0.  0.
420  4.19  0.  0.  0.
421  4.20  0.  0.  0.
422  4.21  0.  0.  0.
423  4.22  0.  0.  0.
424  4.23  0.  0.  0.
425  4.24  0.  0.  0.
426  4.25  0.  0.  0.
427  4.26  0.  0.  0.
428  4.27  0.  0.  0.
429  4.28  0.  0.  0.
430  4.29  0.  0.  0.
431  4.30  0.  0.  0.
432  4.31  0.  0.  0.
433  4.32  0.  0.  0.
434  4.33  0.  0.  0.
435  4.34  0.  0.  0.
436  4.35  0.  0.  0.
437  4.36  0.  0.  0.
438  4.37  0.  0.  0.
439  4.38  0.  0.  0.
440  4.39  0.  0.  0.
441  4.40  0.  0.  0.
442  4.41  0.  0.  0.
443  4.42  0.  0.  0.
444  4.43  0.  0.  0.
445  4.44  0.  0.  0.
446  4.45  0.  0.  0.
447  4.46  0.  0.  0.
448  4.47  0.  0.  0.
449  4.48  0.  0.  0.
450  4.49  0.  0.  0.
451  4.50  0.  0.  0.
452  4.51  0.  0.  0.
453  4.52  0.  0.  0.
454  4.53  0.  0.  0.
455  4.54  0.  0.  0.
456  4.55  0.  0.  0.
457  4.56  0.  0.  0.
458  4.57  0.  0.  0.
459  4.58  0.  0.  0.
460  4.59  0.  0.  0.
461  4.60  0.  0.  0.
462  4.61  0.  0.  0.
463  4.62  0.  0.  0.
464  4.63  0.  0.  0.
465  4.64  0.  0.  0.
466  4.65  0.  0.  0.
467  4.66  0.  0.  0.
468  4.67  0.  0.  0.
469  4.68  0.  0.  0.
470  4.69  0.  0.  0.
471  4.70  0.  0.  0.
472  4.71  0.  0.  0.
473  4.72  0.  0.  0.
474  4.73  0.  0.  0.
475  4.74  0.  0.  0.
476  4.75  0.  0.  0.
477  4.76  0.  0.  0.
478  4.77  0.  0.  0.
479  4.78  0.  0.  0.
480  4.79  0.  0.  0.
481  4.80  0.  0.  0.
482  4.81  0.  0.  0.
483  4.82  0.  0.  0.
484  4.83  0.  0.  0.
485  4.84  0.  0.  0.
486  4.85  0.  0.  0.
487  4.86  0.  0.  0.
488  4.87  0.  0.  0.
489  4.88  0.  0.  0.
490  4.89  0.  0.  0.
491  4.90  0.  0.  0.
492  4.91  0.  0.  0.
493  4.92  0.  0.  0.
494  4.93  0.  0.  0.
495  4.94  0.  0.  0.
496  4.95  0.  0.  0.
497  4.96  0.  0.  0.
498  4.97  0.  0.  0.
499  4.98  0.  0.  0.
500  4.99  0.  0.  0.
501  5.00  0.  0.  0.
502  5.01  0.  0.  0.
503  5.02  0.  0.  0.
504  5.03  0.  0.  0.
505  5.04  0.  0.  0.
506  5.05  0.  0.  0.
507  5.06  0.  0.  0.
508  5.07  0.  0.  0.
509  5.08  0.  0.  0.
510  5.09  0.  0.  0.
511  5.10  0.  0.  0.
512  5.11  0.  0.  0.
513  5.12  0.  0.  0.
514  5.13  0.  0.  0.
515  5.14  0.  0.  0.
516  5.15  0.  0.  0.
517  5.16  0.  0.  0.
518  5.17  0.  0.  0.
519  5.18  0.  0.  0.
520  5.19  0.  0.  0.
521  5.20  0.  0.  0.
522  5.21  0.  0.  0.
523  5.22  0.  0.  0.
524  5.23  0.  0.  0.
525  5.24  0.  0.  0.
526  5.25  0.  0.  0.
527  5.26  0.  0.  0.
528  5.27  0.  0.  0.
529  5.28  0.  0.  0.
530  5.29  0.  0.  0.
531  5.30  0.  0.  0.
532  5.31  0.  0.  0.
533  5.32  0.  0.  0.
534  5.33  0.  0.  0.
535  5.34  0.  0.  0.
536  5.35  0.  0.  0.
537  5.36  0.  0.  0.
538  5.37  0.  0.  0.
539  5.38  0.  0.  0.
540  5.39  0.  0.  0.
541  5.40  0.  0.  0.
542  5.41  0.  0.  0.
543  5.42  0.  0.  0.
544  5.43  0.  0.  0.
545  5.44  0.  0.  0.
546  5.45  0.  0.  0.
547  5.46  0.  0.  0.
548  5.47  0.  0.  0.
549  5.48  0.  0.  0.
550  5.49  0.  0.  0.
551  5.50  0.  0.  0.
552  5.51  0.  0.  0.
553  5.52  0.  0.  0.
554  5.53  0.  0.  0.
555  5.54  0.  0.  0.
556  5.55  0.  0.  0.
557  5.56  0.  0.  0.
558  5.57  0.  0.  0.
559  5.58  0.  0.  0.
560  5.59  0.  0.  0.
561  5.60  0.  0.  0.
562  5.61  0.  0.  0.
563  5.62  0.  0.  0.
564  5.63  0.  0.  0.
565  5.64  0.  0.  0.
566  5.65  0.  0.  0.
567  5.66  0.  0.  0.
568  5.67  0.  0.  0.
569  5.68  0.  0.  0.
570  5.69  0.  0.  0.
571  5.70  0.  0.  0.
572  5.71  0.  0.  0.
573  5.72  0.  0.  0.
574  5.73  0.  0.  0.
575  5.74  0.  0.  0.
576  5.75  0.  0.  0.
577  5.76  0.  0.  0.
578  5.77  0.  0.  0.
579  5.78  0.  0.  0.
580  5.79  0.  0.  0.
581  5.80  0.  0.  0.
582  5.81  0.  0.  0.
583  5.82  0.  0.  0.
584  5.83  0.  0.  0.
585  5.84  0.  0.  0.
586  5.85  0.  0.  0.
587  5.86  0.  0.  0.
588  5.87  0.  0.  0.
589  5.88  0.  0.  0.
590  5.89  0.  0.  0.
591  5.90  0.  0.  0.
592  5.91  0.  0.  0.
593  5.92  0.  0.  0.
594  5.93  0.  0.  0.
595  5.94  0.  0.  0.
596  5.95  0.  0.  0.
597  5.96  0.  0.  0.
598  5.97  0.  0.  0.
599  5.98  0.  0.  0.
600  5.99  0.  0.  0.
1                         6.6505521738074E+00  5.8714429199230E-01
1  0.0000000000000E+00  6.8668526281845E-09 -3.2397633575876E-08
2  1.0000000000000E-02  1.2381681268094E-03 -2.6907421395855E-03
3  2.0000000000000E-02  4.9407439786733E-03 -1.0710744300479E-02
4  3.0000000000000E-02  1.1072152811007E-02 -2.3904337128898E-02
5  4.0000000000000E-02  1.9573802163548E-02 -4.2015397502906E-02
6  5.0000000000000E-02  3.0365116026391E-02 -6.4692271322837E-02
7  6.0000000000000E-02  4.3344954932483E-02 -9.1494534847284E-02
8  7.0000000000000E-02  5.8393394861615E-02 -1.2190146690090E-01
9  8.0000000000000E-02  7.5373830974139E-02 -1.5532207188261E-01
10  9.0000000000000E-02  9.4135365963570E-02 -1.9110646406313E-01
11  1.0000000000000E-01  1.1451543734393E-01 -2.2855839772655E-01
12  1.1000000000000E-01  1.3634263337370E-01 -2.6694870576585E-01
13  1.2000000000000E-01  1.5943964365186E-01 -3.0552939179680E-01
14  1.3000000000000E-01  1.8362628777304E-01 -3.4354810804190E-01
15  1.4000000000000E-01  2.0872256385099E-01 -3.8026274340054E-01
16  1.5000000000000E-01  2.3455165824387E-01 -4.1495584341888E-01
17  1.6000000000000E-01  2.6094285845369E-01 -4.4694858636562E-01
18  1.7000000000000E-01  2.8773431291698E-01 -4.7561404727360E-01
19  1.8000000000000E-01  3.1477558422500E-01 -5.0038949449527E-01
20  1.9000000000000E-01  3.4192994616013E-01 -5.2078748082215E-01
21  2.0000000000000E-01  3.6907637974244E-01 -5.3640551322475E-01
22  2.1000000000000E-01  3.9611122915941E-01 -5.4693411138807E-01
23  2.2000000000000E-01  4.2294948490026E-01 -5.5216309497875E-01
24  2.3000000000000E-01  4.4952566851485E-01 -5.5198597244506E-01
25  2.4000000000000E-01  4.7579430103688E-01 -5.4640233952273E-01
26  2.5000000000000E-01  5.0172994510926E-01 -5.3551823285260E-01
27  2.6000000000000E-01  5.2732681907897E-01 -5.1954442252663E-01
28  2.7000000000000E-01  5.5259798963440E-01 -4.9879266625966E-01
29  2.8000000000000E-01  5.7757415778438E-01 -4.7366998651510E-01
30  2.9000000000000E-01  6.0230206096972E-01 -4.4467106957513E-01
31  3.0000000000000E-01  6.2684252170163E-01 -4.1236892153445E-01
32  3.1000000000000E-01  6.5126818019251E-01 -3.7740394983449E-01
33  3.2000000000000E-01  6.7566095484516E-01 -3.4047166960302E-01
34  3.3000000000000E-01  7.0010928007173E-01 -3.0230926113701E-01
35  3.4000000000000E-01  7.2470517561236E-01 -2.6368122783941E-01
36  3.5000000000000E-01  7.4954120521981E-01 -2.2536442234282E-01
37  3.6000000000000E-01  7.7470738519416E-01 -1.8813272205499E-01
38  3.7000000000000E-01  8.0028810473253E-01 -1.5274164366086E-01
39  3.8000000000000E-01  8.2635912036652E-01 -1.1991318902890E-01
40  3.9000000000000E-01  8.5298468588011E-01 -9.0321212406228E-02
41  4.0000000000000E-01  8.8021487703920E-01 -6.4577590762317E-02
42  4.1000000000000E-01  9.0808316725179E-01 -4.3219465770255E-02
43  4.2000000000000E-01  9.3660430596528E-01 -2.6697807411888E-02
44  4.3000000000000E-01  9.6577254626701E-01 -1.5367525872702E-02
45  4.4000000000000E-01  9.9556026187952E-01 -9.4793306581281E-03