Eu    ONCVPSP-4.0.1  r_core=   2.01108   1.60216   1.90567   1.60216
63.0000     17.0000      230227    zatom,zion,pspd
8      11   3     4   600     0    pspcod,pspxc,lmax,lloc,mmax,r2well
5.99000000  4.00000000  0.00000000    rchrg fchrg qchrg
2     2     2     2     0    nproj
1     1           extension_switch
0                         6.7843014376557E+00  5.2554338005392E-01
1  0.0000000000000E+00  8.4725559901244E-11 -3.5406086396073E-10
2  1.0000000000000E-02  4.0559066992216E-02 -3.0413422220026E-03
3  2.0000000000000E-02  8.1098585319417E-02 -6.1284151283465E-03
4  3.0000000000000E-02  1.2159882092150E-01 -9.3061829449326E-03
5  4.0000000000000E-02  1.6203967116507E-01 -1.2618085654053E-02
6  5.0000000000000E-02  2.0240048607719E-01 -1.6105298465018E-02
7  6.0000000000000E-02  2.4265989614328E-01 -1.9806016942466E-02
8  7.0000000000000E-02  2.8279564875665E-01 -2.3754775925555E-02
9  8.0000000000000E-02  3.2278445532288E-01 -2.7981810017209E-02
10  9.0000000000000E-02  3.6260185091762E-01 -3.2512462986560E-02
11  1.0000000000000E-01  4.0222206827331E-01 -3.7366652914389E-02
12  1.1000000000000E-01  4.4161792772987E-01 -4.2558399325386E-02
13  1.2000000000000E-01  4.8076074462755E-01 -4.8095417898812E-02
14  1.3000000000000E-01  5.1962025544859E-01 -5.3978787636493E-02
15  1.4000000000000E-01  5.5816456383007E-01 -6.0202694602101E-02
16  1.5000000000000E-01  5.9636010737413E-01 -6.6754255534850E-02
17  1.6000000000000E-01  6.3417164597687E-01 -7.3613423793611E-02
18  1.7000000000000E-01  6.7156227218397E-01 -8.0752979211001E-02
19  1.8000000000000E-01  7.0849344386333E-01 -8.8138602541962E-02
20  1.9000000000000E-01  7.4492503926308E-01 -9.5729034284772E-02
21  2.0000000000000E-01  7.8081543430061E-01 -1.0347631674533E-01
22  2.1000000000000E-01  8.1612160170625E-01 -1.1132611731619E-01
23  2.2000000000000E-01  8.5079923142638E-01 -1.1921813005964E-01
24  2.3000000000000E-01  8.8480287147691E-01 -1.2708655182851E-01
25  2.4000000000000E-01  9.1808608823153E-01 -1.3486062833797E-01
26  2.5000000000000E-01  9.5060164493175E-01 -1.4246526482500E-01
27  2.6000000000000E-01  9.8230169701972E-01 -1.4982169520778E-01
28  2.7000000000000E-01  1.0131380027213E+00 -1.5684820299264E-01
29  2.8000000000000E-01  1.0430621471487E+00 -1.6346088657824E-01
30  2.9000000000000E-01  1.0720257780492E+00 -1.6957446108265E-01
31  3.0000000000000E-01  1.0999808512018E+00 -1.7510308837396E-01
32  3.1000000000000E-01  1.1268798833594E+00 -1.7996122662428E-01
33  3.2000000000000E-01  1.1526762105450E+00 -1.8406449043527E-01
34  3.3000000000000E-01  1.1773242494493E+00 -1.8733051240310E-01
35  3.4000000000000E-01  1.2007797596307E+00 -1.8967979690553E-01
36  3.5000000000000E-01  1.2230001041987E+00 -1.9103655690368E-01
37  3.6000000000000E-01  1.2439445066631E+00 -1.9132952465888E-01
38  3.7000000000000E-01  1.2635743016519E+00 -1.9049272746709E-01
39  3.8000000000000E-01  1.2818531772498E+00 -1.8846621981246E-01
40  3.9000000000000E-01  1.2987474067736E+00 -1.8519676373057E-01
41  4.0000000000000E-01  1.3142260678893E+00 -1.8063844965245E-01
42  4.1000000000000E-01  1.3282612470856E+00 -1.7475325056346E-01
43  4.2000000000000E-01  1.3408282276448E+00 -1.6751150295541E-01
44  4.3000000000000E-01  1.3519056593995E+00 -1.5889230876743E-01
45  4.4000000000000E-01  1.3614757087243E+00 -1.4888385329477E-01
46  4.5000000000000E-01  1.3695241873911E+00 -1.3748363488806E-01
47  4.6000000000000E-01  1.3760406591078E+00 -1.2469860315942E-01
48  4.7000000000000E-01  1.3810185227613E+00 -1.1054520334772E-01
49  4.8000000000000E-01  1.3844550715996E+00 -9.5049325463944E-02
50  4.9000000000000E-01  1.3863515278081E+00 -7.8246157829363E-02
51  5.0000000000000E-01  1.3867130521578E+00 -6.0179945622733E-02
52  5.1000000000000E-01  1.3855487286341E+00 -4.0903656060250E-02
53  5.2000000000000E-01  1.3828715241817E+00 -2.0478552829964E-02
54  5.3000000000000E-01  1.3786982239319E+00  1.0263166176615E-03
55  5.4000000000000E-01  1.3730493424967E+00  2.3534716369547E-02
56  5.5000000000000E-01  1.3659490121399E+00  4.6963894475729E-02
57  5.6000000000000E-01  1.3574248488366E+00  7.1225326172167E-02
58  5.7000000000000E-01  1.3475077974399E+00  9.6225520768146E-02
59  5.8000000000000E-01  1.3362319573539E+00  1.2186688432756E-01
60  5.9000000000000E-01  1.3236343902909E+00  1.4804862961165E-01
61  6.0000000000000E-01  1.3097549118435E+00  1.7466772417175E-01
62  6.1000000000000E-01  1.2946358687445E+00  2.0161986699171E-01
63  6.2000000000000E-01  1.2783219038085E+00  2.2880048368614E-01
64  6.3000000000000E-01  1.2608597106471E+00  2.5610572996766E-01
65  6.4000000000000E-01  1.2422977803334E+00  2.8343349290864E-01
66  6.5000000000000E-01  1.2226861422464E+00  3.1068437944105E-01
67  6.6000000000000E-01  1.2020761013628E+00  3.3776268156630E-01
68  6.7000000000000E-01  1.1805199742764E+00  3.6457730788459E-01
69  6.8000000000000E-01  1.1580708262165E+00  3.9104267129895E-01
70  6.9000000000000E-01  1.1347822113027E+00  4.1707952310250E-01
71  7.0000000000000E-01  1.1107079182213E+00  4.4261572411521E-01
72  7.1000000000000E-01  1.0859017234314E+00  4.6758694409361E-01
73  7.2000000000000E-01  1.0604171539139E+00  4.9193728128875E-01
74  7.3000000000000E-01  1.0343072613603E+00  5.1561979476952E-01
75  7.4000000000000E-01  1.0076244095644E+00  5.3859694294960E-01
76  7.5000000000000E-01  9.8042007663184E-01  5.6084092265302E-01
77  7.6000000000000E-01  9.5274467345527E-01  5.8233390401235E-01
78  7.7000000000000E-01  9.2464737972692E-01  6.0306815750875E-01
79  7.8000000000000E-01  8.9617599857078E-01  6.2304607052170E-01
80  7.9000000000000E-01  8.6737683067950E-01  6.4228005184906E-01
81  8.0000000000000E-01  8.3829456863652E-01  6.6079232377278E-01
82  8.1000000000000E-01  8.0897221189572E-01  6.7861460237152E-01
83  8.2000000000000E-01  7.7945100267952E-01  6.9578766790682E-01
84  8.3000000000000E-01  7.4977038284636E-01  7.1236082822177E-01
85  8.4000000000000E-01  7.1996797156949E-01  7.2839127918166E-01
86  8.5000000000000E-01  6.9007956346571E-01  7.4394336723939E-01
87  8.6000000000000E-01  6.6013914661533E-01  7.5908776021885E-01
88  8.7000000000000E-01  6.3017893972629E-01  7.7390053336273E-01
89  8.8000000000000E-01  6.0022944751734E-01  7.8846217857973E-01
90  8.9000000000000E-01  5.7031953322952E-01  8.0285654564182E-01
91  9.0000000000000E-01  5.4047650702297E-01  8.1716972481551E-01
92  9.1000000000000E-01  5.1072622887946E-01  8.3148888105663E-01
93  9.2000000000000E-01  4.8109322450955E-01  8.4590105045020E-01
94  9.3000000000000E-01  4.5160081266019E-01  8.6049191002962E-01
95  9.4000000000000E-01  4.2227124213128E-01  8.7534453246174E-01
96  9.5000000000000E-01  3.9312583674217E-01  8.9053813733169E-01
97  9.6000000000000E-01  3.6418514643827E-01  9.0614685090462E-01
98  9.7000000000000E-01  3.3546910269562E-01  9.2223848627996E-01
99  9.8000000000000E-01  3.0699717636645E-01  9.3887335579102E-01
100  9.9000000000000E-01  2.7878853611066E-01  9.5610312733745E-01
101  1.0000000000000E+00  2.5086220557632E-01  9.7396973608012E-01
102  1.0100000000000E+00  2.2323721752510E-01  9.9250436257626E-01
103  1.0200000000000E+00  1.9593276314559E-01  1.0117264879976E+00
104  1.0300000000000E+00  1.6896833485634E-01  1.0316430365608E+00
105  1.0400000000000E+00  1.4236386097052E-01  1.0522476147142E+00
106  1.0500000000000E+00  1.1613983067301E-01  1.0735198559786E+00
107  1.0600000000000E+00  9.0317407847622E-02  1.0954248796372E+00
108  1.0700000000000E+00  6.4918532384010E-02  1.1179128707241E+00
109  1.0800000000000E+00  3.9966007690574E-02  1.1409187879757E+00
110  1.0900000000000E+00  1.5483573238046E-02  1.1643622055980E+00
111  1.1000000000000E+00 -8.5040389418115E-03  1.1881472938694E+00
112  1.1100000000000E+00 -3.1971064779452E-02  1.2121629427567E+00
113  1.1200000000000E+00 -5.4890686592540E-02  1.2362830318688E+00
114  1.1300000000000E+00 -7.7235030199008E-02  1.2603668492293E+00
115  1.1400000000000E+00 -9.8975181414021E-02  1.2842596604999E+00
116  1.1500000000000E+00 -1.2008122254122E-01  1.3077934294624E+00
117  1.1600000000000E+00 -1.4052228938713E-01  1.3307876897396E+00
118  1.1700000000000E+00 -1.6026664925093E-01  1.3530505669347E+00
119  1.1800000000000E+00 -1.7928180026851E-01  1.3743799495706E+00
120  1.1900000000000E+00 -1.9753459241992E-01  1.3945648064313E+00
121  1.2000000000000E+00 -2.1499137044023E-01  1.4133866471238E+00
122  1.2100000000000E+00 -2.3161813880561E-01  1.4306211219051E+00
123  1.2200000000000E+00 -2.4738074889458E-01  1.4460397560282E+00
124  1.2300000000000E+00 -2.6224510834824E-01  1.4594118130526E+00
125  1.2400000000000E+00 -2.7617741256851E-01  1.4705062807271E+00
126  1.2500000000000E+00 -2.8914439819683E-01  1.4790939721632E+00
127  1.2600000000000E+00 -3.0111361830315E-01  1.4849497340703E+00
128  1.2700000000000E+00 -3.1205373888270E-01  1.4878547527898E+00
129  1.2800000000000E+00 -3.2193485609957E-01  1.4875989477313E+00
130  1.2900000000000E+00 -3.3072883352825E-01  1.4839834405575E+00
131  1.3000000000000E+00 -3.3840965842030E-01  1.4768230870562E+00
132  1.3100000000000E+00 -3.4495381575645E-01  1.4659490570554E+00
133  1.3200000000000E+00 -3.5034067853061E-01  1.4512114459564E+00
134  1.3300000000000E+00 -3.5455291234433E-01  1.4324818994518E+00
135  1.3400000000000E+00 -3.5757689195824E-01  1.4096562307162E+00
136  1.3500000000000E+00 -3.5940312694924E-01  1.3826570068006E+00
137  1.3600000000000E+00 -3.6002669304815E-01  1.3514360780757E+00
138  1.3700000000000E+00 -3.5944766507466E-01  1.3159770213316E+00
139  1.3800000000000E+00 -3.5767154663794E-01  1.2762974635031E+00
140  1.3900000000000E+00 -3.5470969092486E-01  1.2324512489391E+00
141  1.4000000000000E+00 -3.5057970594416E-01  1.1845304086126E+00
142  1.4100000000000E+00 -3.4530583653054E-01  1.1326668846644E+00
143  1.4200000000000E+00 -3.3891931421735E-01  1.0770339580986E+00
144  1.4300000000000E+00 -3.3145866476957E-01  1.0178473213374E+00
145  1.4400000000000E+00 -3.2296996170699E-01  9.5536573059687E-01
146  1.4500000000000E+00 -3.1350701253437E-01  8.8989116562099E-01
147  1.4600000000000E+00 -3.0313146263915E-01  8.2176841626505E-01
148  1.4700000000000E+00 -2.9191279987045E-01  7.5138400650692E-01
149  1.4800000000000E+00 -2.7992824071313E-01  6.7916435687740E-01
150  1.4900000000000E+00 -2.6726247667128E-01  6.0557307581084E-01
151  1.5000000000000E+00 -2.5400725698368E-01  5.3110725905907E-01
152  1.5100000000000E+00 -2.4026078109545E-01  4.5629266401707E-01
153  1.5200000000000E+00 -2.2612687138572E-01  3.8167761248493E-01
154  1.5300000000000E+00 -2.1171389351775E-01  3.0782546111122E-01
155  1.5400000000000E+00 -1.9713338836939E-01  2.3530546322160E-01
156  1.5500000000000E+00 -1.8249837586703E-01  1.6468182915414E-01
157  1.5600000000000E+00 -1.6792128712834E-01  9.6500774331511E-02
158  1.5700000000000E+00 -1.5351147712059E-01  3.1275325110888E-02
159  1.5800000000000E+00 -1.3937226398702E-01 -3.0532378723975E-02
160  1.5900000000000E+00 -1.2559743924484E-01 -8.8531546935304E-02
161  1.6000000000000E+00 -1.1226725455565E-01 -1.4242581204533E-01
162  1.6100000000000E+00 -9.9443742888571E-02 -1.9203970858183E-01
163  1.6200000000000E+00 -8.7173506270536E-02 -2.3729366974153E-01
164  1.6300000000000E+00 -7.5496066643509E-02 -2.7814378055061E-01
165  1.6400000000000E+00 -6.4445827021049E-02 -3.1456760120608E-01
166  1.6500000000000E+00 -5.4051750305272E-02 -3.4656594837293E-01
167  1.6600000000000E+00 -4.4337299642066E-02 -3.7416295324713E-01
168  1.6700000000000E+00 -3.5320381065592E-02 -3.9740620955522E-01
169  1.6800000000000E+00 -2.7013329145161E-02 -4.1636672539559E-01
170  1.6900000000000E+00 -1.9422936097384E-02 -4.3113867755157E-01
171  1.7000000000000E+00 -1.2550523973988E-02 -4.4183897121446E-01
172  1.7100000000000E+00 -6.3920590297240E-03 -4.4860661019745E-01
173  1.7200000000000E+00 -9.3830919773882E-04 -4.5160187063029E-01
174  1.7300000000000E+00  3.8249588494646E-03 -4.5100529843207E-01
175  1.7400000000000E+00  7.9167422259567E-03 -4.4701652293247E-01
176  1.7500000000000E+00  1.1360526908345E-02 -4.3985290219980E-01
177  1.7600000000000E+00  1.4183977282762E-02 -4.2974800852136E-01
178  1.7700000000000E+00  1.6418592577506E-02 -4.1694996502328E-01
179  1.7800000000000E+00  1.8099333021144E-02 -4.0171964657654E-01
180  1.7900000000000E+00  1.9264218793835E-02 -3.8432875909149E-01
181  1.8000000000000E+00  1.9953905138213E-02 -3.6505781273889E-01
182  1.8100000000000E+00  2.0211237192647E-02 -3.4419400549751E-01
183  1.8200000000000E+00  2.0080788333743E-02 -3.2202903449727E-01
184  1.8300000000000E+00  1.9608385979553E-02 -2.9885685338839E-01
185  1.8400000000000E+00  1.8840628929896E-02 -2.7497139453679E-01
186  1.8500000000000E+00  1.7824400432707E-02 -2.5066427539109E-01
187  1.8600000000000E+00  1.6606381191778E-02 -2.2622250845489E-01
188  1.8700000000000E+00  1.5232566581953E-02 -2.0192623457349E-01
189  1.8800000000000E+00  1.3747794193176E-02 -1.7804650606897E-01
190  1.8900000000000E+00  1.2195264754324E-02 -1.5484306140534E-01
191  1.9000000000000E+00  1.0616156341589E-02 -1.3256245800754E-01
192  1.9100000000000E+00  9.0490552909119E-03 -1.1143558196863E-01
193  1.9200000000000E+00  7.5278542584964E-03 -9.1669404448135E-02
194  1.9300000000000E+00  6.0832424137843E-03 -7.3452042049087E-02
195  1.9400000000000E+00  4.7456487134051E-03 -5.6963435678571E-02
196  1.9500000000000E+00  3.5411946165940E-03 -4.2360305740553E-02
197  1.9600000000000E+00  2.4916858000320E-03 -2.9775812290620E-02
198  1.9700000000000E+00  1.6143314455130E-03 -1.9318278667450E-02
199  1.9800000000000E+00  9.2184420400878E-04 -1.1073786893908E-02
200  1.9900000000000E+00  4.1982787517967E-04 -5.0746446954988E-03
201  2.0000000000000E+00  1.1597639405917E-04 -1.4144270527698E-03
202  2.0100000000000E+00  3.9662332189526E-06 -4.8932171850880E-05
203  2.0200000000000E+00 -3.6155621557665E-06  4.4756426746774E-05
204  2.0300000000000E+00  1.8765685404770E-06 -2.3039050441765E-05
205  2.04 -0.  0.
206  2.05 -0. -0.
207  2.06  0.  0.
208  2.07  0.  0.
209  2.08  0.  0.
210  2.09  0.  0.
211  2.10  0.  0.
212  2.11  0.  0.
213  2.12  0.  0.
214  2.13  0.  0.
215  2.14  0.  0.
216  2.15  0.  0.
217  2.16  0.  0.
218  2.17  0.  0.
219  2.18  0.  0.
220  2.19  0.  0.
221  2.20  0.  0.
222  2.21  0.  0.
223  2.22  0.  0.
224  2.23  0.  0.
225  2.24  0.  0.
226  2.25  0.  0.
227  2.26  0.  0.
228  2.27  0.  0.
229  2.28  0.  0.
230  2.29  0.  0.
231  2.30  0.  0.
232  2.31  0.  0.
233  2.32  0.  0.
234  2.33  0.  0.
235  2.34  0.  0.
236  2.35  0.  0.
237  2.36  0.  0.
238  2.37  0.  0.
239  2.38  0.  0.
240  2.39  0.  0.
241  2.40  0.  0.
242  2.41  0.  0.
243  2.42  0.  0.
244  2.43  0.  0.
245  2.44  0.  0.
246  2.45  0.  0.
247  2.46  0.  0.
248  2.47  0.  0.
249  2.48  0.  0.
250  2.49  0.  0.
251  2.50  0.  0.
252  2.51  0.  0.
253  2.52  0.  0.
254  2.53  0.  0.
255  2.54  0.  0.
256  2.55  0.  0.
257  2.56  0.  0.
258  2.57  0.  0.
259  2.58  0.  0.
260  2.59  0.  0.
261  2.60  0.  0.
262  2.61  0.  0.
263  2.62  0.  0.
264  2.63  0.  0.
265  2.64  0.  0.
266  2.65  0.  0.
267  2.66  0.  0.
268  2.67  0.  0.
269  2.68  0.  0.
270  2.69  0.  0.
271  2.70  0.  0.
272  2.71  0.  0.
273  2.72  0.  0.
274  2.73  0.  0.
275  2.74  0.  0.
276  2.75  0.  0.
277  2.76  0.  0.
278  2.77  0.  0.
279  2.78  0.  0.
280  2.79  0.  0.
281  2.80  0.  0.
282  2.81  0.  0.
283  2.82  0.  0.
284  2.83  0.  0.
285  2.84  0.  0.
286  2.85  0.  0.
287  2.86  0.  0.
288  2.87  0.  0.
289  2.88  0.  0.
290  2.89  0.  0.
291  2.90  0.  0.
292  2.91  0.  0.
293  2.92  0.  0.
294  2.93  0.  0.
295  2.94  0.  0.
296  2.95  0.  0.
297  2.96  0.  0.
298  2.97  0.  0.
299  2.98  0.  0.
300  2.99  0.  0.
301  3.00  0.  0.
302  3.01  0.  0.
303  3.02  0.  0.
304  3.03  0.  0.
305  3.04  0.  0.
306  3.05  0.  0.
307  3.06  0.  0.
308  3.07  0.  0.
309  3.08  0.  0.
310  3.09  0.  0.
311  3.10  0.  0.
312  3.11  0.  0.
313  3.12  0.  0.
314  3.13  0.  0.
315  3.14  0.  0.
316  3.15  0.  0.
317  3.16  0.  0.
318  3.17  0.  0.
319  3.18  0.  0.
320  3.19  0.  0.
321  3.20  0.  0.
322  3.21  0.  0.
323  3.22  0.  0.
324  3.23  0.  0.
325  3.24  0.  0.
326  3.25  0.  0.
327  3.26  0.  0.
328  3.27  0.  0.
329  3.28  0.  0.
330  3.29  0.  0.
331  3.30  0.  0.
332  3.31  0.  0.
333  3.32  0.  0.
334  3.33  0.  0.
335  3.34  0.  0.
336  3.35  0.  0.
337  3.36  0.  0.
338  3.37  0.  0.
339  3.38  0.  0.
340  3.39  0.  0.
341  3.40  0.  0.
342  3.41  0.  0.
343  3.42  0.  0.
344  3.43  0.  0.
345  3.44  0.  0.
346  3.45  0.  0.
347  3.46  0.  0.
348  3.47  0.  0.
349  3.48  0.  0.
350  3.49  0.  0.
351  3.50  0.  0.
352  3.51  0.  0.
353  3.52  0.  0.
354  3.53  0.  0.
355  3.54  0.  0.
356  3.55  0.  0.
357  3.56  0.  0.
358  3.57  0.  0.
359  3.58  0.  0.
360  3.59  0.  0.
361  3.60  0.  0.
362  3.61  0.  0.
363  3.62  0.  0.
364  3.63  0.  0.
365  3.64  0.  0.
366  3.65  0.  0.
367  3.66  0.  0.
368  3.67  0.  0.
369  3.68  0.  0.
370  3.69  0.  0.
371  3.70  0.  0.
372  3.71  0.  0.
373  3.72  0.  0.
374  3.73  0.  0.
375  3.74  0.  0.
376  3.75  0.  0.
377  3.76  0.  0.
378  3.77  0.  0.
379  3.78  0.  0.
380  3.79  0.  0.
381  3.80  0.  0.
382  3.81  0.  0.
383  3.82  0.  0.
384  3.83  0.  0.
385  3.84  0.  0.
386  3.85  0.  0.
387  3.86  0.  0.
388  3.87  0.  0.
389  3.88  0.  0.
390  3.89  0.  0.
391  3.90  0.  0.
392  3.91  0.  0.
393  3.92  0.  0.
394  3.93  0.  0.
395  3.94  0.  0.
396  3.95  0.  0.
397  3.96  0.  0.
398  3.97  0.  0.
399  3.98  0.  0.
400  3.99  0.  0.
401  4.00  0.  0.
402  4.01  0.  0.
403  4.02  0.  0.
404  4.03  0.  0.
405  4.04  0.  0.
406  4.05  0.  0.
407  4.06  0.  0.
408  4.07  0.  0.
409  4.08  0.  0.
410  4.09  0.  0.
411  4.10  0.  0.
412  4.11  0.  0.
413  4.12  0.  0.
414  4.13  0.  0.
415  4.14  0.  0.
416  4.15  0.  0.
417  4.16  0.  0.
418  4.17  0.  0.
419  4.18  0.  0.
420  4.19  0.  0.
421  4.20  0.  0.
422  4.21  0.  0.
423  4.22  0.  0.
424  4.23  0.  0.
425  4.24  0.  0.
426  4.25  0.  0.
427  4.26  0.  0.
428  4.27  0.  0.
429  4.28  0.  0.
430  4.29  0.  0.
431  4.30  0.  0.
432  4.31  0.  0.
433  4.32  0.  0.
434  4.33  0.  0.
435  4.34  0.  0.
436  4.35  0.  0.
437  4.36  0.  0.
438  4.37  0.  0.
439  4.38  0.  0.
440  4.39  0.  0.
441  4.40  0.  0.
442  4.41  0.  0.
443  4.42  0.  0.
444  4.43  0.  0.
445  4.44  0.  0.
446  4.45  0.  0.
447  4.46  0.  0.
448  4.47  0.  0.
449  4.48  0.  0.
450  4.49  0.  0.
451  4.50  0.  0.
452  4.51  0.  0.
453  4.52  0.  0.
454  4.53  0.  0.
455  4.54  0.  0.
456  4.55  0.  0.
457  4.56  0.  0.
458  4.57  0.  0.
459  4.58  0.  0.
460  4.59  0.  0.
461  4.60  0.  0.
462  4.61  0.  0.
463  4.62  0.  0.
464  4.63  0.  0.
465  4.64  0.  0.
466  4.65  0.  0.
467  4.66  0.  0.
468  4.67  0.  0.
469  4.68  0.  0.
470  4.69  0.  0.
471  4.70  0.  0.
472  4.71  0.  0.
473  4.72  0.  0.
474  4.73  0.  0.
475  4.74  0.  0.
476  4.75  0.  0.
477  4.76  0.  0.
478  4.77  0.  0.
479  4.78  0.  0.
480  4.79  0.  0.
481  4.80  0.  0.
482  4.81  0.  0.
483  4.82  0.  0.
484  4.83  0.  0.
485  4.84  0.  0.
486  4.85  0.  0.
487  4.86  0.  0.
488  4.87  0.  0.
489  4.88  0.  0.
490  4.89  0.  0.
491  4.90  0.  0.
492  4.91  0.  0.
493  4.92  0.  0.
494  4.93  0.  0.
495  4.94  0.  0.
496  4.95  0.  0.
497  4.96  0.  0.
498  4.97  0.  0.
499  4.98  0.  0.
500  4.99  0.  0.
501  5.00  0.  0.
502  5.01  0.  0.
503  5.02  0.  0.
504  5.03  0.  0.
505  5.04  0.  0.
506  5.05  0.  0.
507  5.06  0.  0.
508  5.07  0.  0.
509  5.08  0.  0.
510  5.09  0.  0.
511  5.10  0.  0.
512  5.11  0.  0.
513  5.12  0.  0.
514  5.13  0.  0.
515  5.14  0.  0.
516  5.15  0.  0.
517  5.16  0.  0.
518  5.17  0.  0.
519  5.18  0.  0.
520  5.19  0.  0.
521  5.20  0.  0.
522  5.21  0.  0.
523  5.22  0.  0.
524  5.23  0.  0.
525  5.24  0.  0.
526  5.25  0.  0.
527  5.26  0.  0.
528  5.27  0.  0.
529  5.28  0.  0.
530  5.29  0.  0.
531  5.30  0.  0.
532  5.31  0.  0.
533  5.32  0.  0.
534  5.33  0.  0.
535  5.34  0.  0.
536  5.35  0.  0.
537  5.36  0.  0.
538  5.37  0.  0.
539  5.38  0.  0.
540  5.39  0.  0.
541  5.40  0.  0.
542  5.41  0.  0.
543  5.42  0.  0.
544  5.43  0.  0.
545  5.44  0.  0.
546  5.45  0.  0.
547  5.46  0.  0.
548  5.47  0.  0.
549  5.48  0.  0.
550  5.49  0.  0.
551  5.50  0.  0.
552  5.51  0.  0.
553  5.52  0.  0.
554  5.53  0.  0.
555  5.54  0.  0.
556  5.55  0.  0.
557  5.56  0.  0.
558  5.57  0.  0.
559  5.58  0.  0.
560  5.59  0.  0.
561  5.60  0.  0.
562  5.61  0.  0.
563  5.62  0.  0.
564  5.63  0.  0.
565  5.64  0.  0.
566  5.65  0.  0.
567  5.66  0.  0.
568  5.67  0.  0.
569  5.68  0.  0.
570  5.69  0.  0.
571  5.70  0.  0.
572  5.71  0.  0.
573  5.72  0.  0.
574  5.73  0.  0.
575  5.74  0.  0.
576  5.75  0.  0.
577  5.76  0.  0.
578  5.77  0.  0.
579  5.78  0.  0.
580  5.79  0.  0.
581  5.80  0.  0.
582  5.81  0.  0.
583  5.82  0.  0.
584  5.83  0.  0.
585  5.84  0.  0.
586  5.85  0.  0.
587  5.86  0.  0.
588  5.87  0.  0.
589  5.88  0.  0.
590  5.89  0.  0.
591  5.90  0.  0.
592  5.91  0.  0.
593  5.92  0.  0.
594  5.93  0.  0.
595  5.94  0.  0.
596  5.95  0.  0.
597  5.96  0.  0.
598  5.97  0.  0.
599  5.98  0.  0.
600  5.99  0.  0.
1                         5.0487847275973E+00  2.6855801445006E-01
1  0.0000000000000E+00  7.7054162356260E-09 -7.6499992007761E-08
2  1.0000000000000E-02  1.4108714625300E-03 -5.3473238729860E-03
3  2.0000000000000E-02  5.6298473213308E-03 -2.1270265743418E-02
4  3.0000000000000E-02  1.2616248517799E-02 -4.7414085470244E-02
5  4.0000000000000E-02  2.2303060519691E-02 -8.3195335008820E-02
6  5.0000000000000E-02  3.4598093410980E-02 -1.2781338065435E-01
7  6.0000000000000E-02  4.9385574810029E-02 -1.8026622510960E-01
8  7.0000000000000E-02  6.6528145123872E-02 -2.3937032727648E-01
9  8.0000000000000E-02  8.5869216940927E-02 -3.0378404117121E-01
10  9.0000000000000E-02  1.0723565338815E-01 -3.7203422597303E-01
11  1.0000000000000E-01  1.3044071416467E-01 -4.4254551824361E-01
12  1.1000000000000E-01  1.5528721282979E-01 -5.1367170594808E-01
13  1.2000000000000E-01  1.8157082486796E-01 -5.8372860304237E-01
14  1.3000000000000E-01  2.0908348315483E-01 -6.5102779384190E-01
15  1.4000000000000E-01  2.3761679576467E-01 -7.1391059872069E-01
16  1.5000000000000E-01  2.6696542062229E-01 -7.7078160725253E-01
17  1.6000000000000E-01  2.9693033232481E-01 -8.2014113181604E-01
18  1.7000000000000E-01  3.2732191852359E-01 -8.6061595382920E-01
19  1.8000000000000E-01  3.5796284653026E-01 -8.9098776581693E-01
20  1.9000000000000E-01  3.8869064523012E-01 -9.1021875488385E-01
21  2.0000000000000E-01  4.1935995287139E-01 -9.1747382608791E-01
22  2.1000000000000E-01  4.4984438774606E-01 -9.1213902671490E-01
23  2.2000000000000E-01  4.8003800606728E-01 -8.9383580338663E-01
24  2.3000000000000E-01  5.0985631934216E-01 -8.6243080198025E-01
25  2.4000000000000E-01  5.3923685208620E-01 -8.1804100404633E-01
26  2.5000000000000E-01  5.6813922966573E-01 -7.6103408123012E-01
27  2.6000000000000E-01  5.9654479521633E-01 -6.9202393948543E-01
28  2.7000000000000E-01  6.2445576379620E-01 -6.1186151593827E-01
29  2.8000000000000E-01  6.5189393101551E-01 -5.2162098139949E-01
30  2.9000000000000E-01  6.7889896216423E-01 -4.2258158905078E-01
31  3.0000000000000E-01  7.0552629617136E-01 -3.1620549308782E-01
32  3.1000000000000E-01  7.3184470640828E-01 -2.0411193852381E-01
33  3.2000000000000E-01  7.5793356724849E-01 -8.8048293471077E-02
34  3.3000000000000E-01  7.8387988128093E-01  3.0141543312712E-02
35  3.4000000000000E-01  8.0977512702576E-01  1.4855077517689E-01
36  3.5000000000000E-01  8.3571199082130E-01  2.6524475536358E-01
37  3.6000000000000E-01  8.6178104916092E-01  3.7829679534935E-01
38  3.7000000000000E-01  8.8806746910366E-01  4.8582406225926E-01
39  3.8000000000000E-01  9.1464779443053E-01  5.8602288942219E-01
40  3.9000000000000E-01  9.4158688396291E-01  6.7720283237856E-01
41  4.0000000000000E-01  9.6893506591815E-01  7.5781882346596E-01
42  4.1000000000000E-01  9.9672556839129E-01  8.2650081115238E-01
43  4.2000000000000E-01  1.0249722810880E+00  8.8208031498044E-01
44  4.3000000000000E-01  1.0536678973801E+00  9.2361338253484E-01
45  4.4000000000000E-01  1.0827824787199E+00  9.5039950024486E-01
46  4.5000000000000E-01  1.1122624755664E+00  9.6199608389590E-01
47  4.6000000000000E-01  1.1420302303808E+00  9.5822825609014E-01
48  4.7000000000000E-01  1.1719839791153E+00  9.3919370507052E-01
49  4.8000000000000E-01  1.2019983581015E+00  9.0526251068863E-01
50  4.9000000000000E-01  1.2319254135375E+00  8.5707191716378E-01
51  5.0000000000000E-01  1.2615961010468E+00  7.9551612689163E-01
52  5.1000000000000E-01  1.2908222532340E+00  7.2173128315049E-01
53  5.2000000000000E-01  1.3193989839609E+00  6.3707590035954E-01
54  5.3000000000000E-01  1.3471074894033E+00  5.4310708685567E-01
55  5.4000000000000E-01  1.3737181979821E+00  4.4155298533569E-01
56  5.5000000000000E-01  1.3989942141470E+00  3.3428192863323E-01
57  5.6000000000000E-01  1.4226949948772E+00  2.2326887197517E-01
58  5.7000000000000E-01  1.4445801927608E+00  1.1055971606240E-01
59  5.8000000000000E-01  1.4644135957332E+00 -1.7658227891692E-03
60  5.9000000000000E-01  1.4819670910720E+00 -1.1163210946269E-01
61  6.0000000000000E-01  1.4970245801145E+00 -2.1700555082130E-01
62  6.1000000000000E-01  1.5093857704180E+00 -3.1593191357904E-01
63  6.2000000000000E-01  1.5188697737201E+00 -4.0657230173223E-01
64  6.3000000000000E-01  1.5253184410620E+00 -4.8723711848357E-01
65  6.4000000000000E-01  1.5285993707552E+00 -5.5641737279176E-01
66  6.5000000000000E-01  1.5286085304350E+00 -6.1281273800983E-01
67  6.6000000000000E-01  1.5252724411482E+00 -6.5535582868689E-01
68  6.7000000000000E-01  1.5185498791539E+00 -6.8323223044849E-01
69  6.8000000000000E-01  1.5084330597302E+00 -6.9589589567611E-01
70  6.9000000000000E-01  1.4949482766195E+00 -6.9307960305376E-01
71  7.0000000000000E-01  1.4781559806441E+00 -6.7480027035742E-01
72  7.1000000000000E-01  1.4581502912844E+00 -6.4135900543769E-01
73  7.2000000000000E-01  1.4350579454626E+00 -5.9333587840046E-01
74  7.3000000000000E-01  1.4090366981968E+00 -5.3157949669901E-01
75  7.4000000000000E-01  1.3802732000044E+00 -4.5719156233778E-01
76  7.5000000000000E-01  1.3489803857367E+00 -3.7150668484032E-01
77  7.6000000000000E-01  1.3153944187328E+00 -2.7606781323843E-01
78  7.7000000000000E-01  1.2797712426114E+00 -1.7259773340666E-01
79  7.8000000000000E-01  1.2423828005183E+00 -6.2967152006209E-02
80  7.9000000000000E-01  1.2035129880574E+00  5.0840046322652E-02
81  8.0000000000000E-01  1.1634534113349E+00  1.6676372733343E-01
82  8.1000000000000E-01  1.1224990254363E+00  2.8270593726548E-01
83  8.2000000000000E-01  1.0809437311484E+00  3.9657012087498E-01
84  8.3000000000000E-01  1.0390760087872E+00  5.0630039701874E-01
85  8.4000000000000E-01  9.9717466756329E-01  6.0992015847573E-01
86  8.5000000000000E-01  9.5550478701965E-01  7.0556927353033E-01
87  8.6000000000000E-01  9.1431392373504E-01  7.9153919127926E-01
88  8.7000000000000E-01  8.7382865175926E-01  8.6630529023327E-01
89  8.8000000000000E-01  8.3425149922052E-01  9.2855585988459E-01
90  8.9000000000000E-01  7.9575833632598E-01  9.7721716658237E-01
91  9.0000000000000E-01  7.5849626169786E-01  1.0114741271661E+00
92  9.1000000000000E-01  7.2258202480348E-01  1.0307861949998E+00
93  9.2000000000000E-01  6.8810101231676E-01  1.0348981518220E+00
94  9.3000000000000E-01  6.5510681577925E-01  1.0238455935049E+00
95  9.4000000000000E-01  6.2362138710557E-01  9.9795499662470E-01
96  9.5000000000000E-01  5.9363577750562E-01  9.5783835383190E-01
97  9.6000000000000E-01  5.6511144448430E-01  9.0438246743878E-01
98  9.7000000000000E-01  5.3798210093069E-01  8.3873309054095E-01
99  9.8000000000000E-01  5.1215607013101E-01  7.6227420143322E-01
100  9.9000000000000E-01  4.8751910102274E-01  6.7660278826498E-01
101  1.0000000000000E+00  4.6393758933871E-01  5.8349960505010E-01
102  1.0100000000000E+00  4.4126214262770E-01  4.8489643576952E-01
103  1.0200000000000E+00  4.1933142063765E-01  3.8284046888895E-01
104  1.0300000000000E+00  3.9797617733057E-01  2.7945643893848E-01
105  1.0400000000000E+00  3.7702342696480E-01  1.7690723386886E-01
106  1.0500000000000E+00  3.5630065430638E-01  7.7353695898979E-02
107  1.0600000000000E+00  3.3563998816534E-01 -1.7085641057826E-02
108  1.0700000000000E+00  3.1488225810700E-01 -1.0437413276828E-01
109  1.0800000000000E+00  2.9388085636292E-01 -1.8259519266263E-01
110  1.0900000000000E+00  2.7250533059964E-01 -2.4998834019669E-01
111  1.1000000000000E+00  2.5064463826356E-01 -3.0498246263364E-01
112  1.1100000000000E+00  2.2820999955796E-01 -3.4622567467589E-01
113  1.1200000000000E+00  2.0513729367271E-01 -3.7261122345033E-01
114  1.1300000000000E+00  1.8138895145480E-01 -3.8329895923807E-01
115  1.1400000000000E+00  1.5695530720167E-01 -3.7773197435836E-01
116  1.1500000000000E+00  1.3185538240934E-01 -3.5564810143136E-01
117  1.1600000000000E+00  1.0613708501836E-01 -3.1708605701918E-01
118  1.1700000000000E+00  7.9876818655546E-02 -2.6238611455763E-01
119  1.1800000000000E+00  5.3178507502471E-02 -1.9218529098106E-01
120  1.1900000000000E+00  2.6172053343961E-02 -1.0740713097975E-01
121  1.2000000000000E+00 -9.8874793299313E-04 -9.2462715059242E-03
122  1.2100000000000E+00 -2.8128793031978E-02  1.0085193694559E-01
123  1.2200000000000E+00 -5.5054714309489E-02  2.2121638652759E-01
124  1.2300000000000E+00 -8.1558323849672E-02  3.4997929823526E-01
125  1.2400000000000E+00 -1.0742039570699E-01  4.8510891757338E-01
126  1.2500000000000E+00 -1.3241471712792E-01  6.2444523560017E-01
127  1.2600000000000E+00 -1.5631233456505E-01  7.6573809919546E-01
128  1.2700000000000E+00 -1.7888591665003E-01  9.0668703387680E-01
129  1.2800000000000E+00 -1.9991415410907E-01  1.0449820746247E+00
130  1.2900000000000E+00 -2.1918611590731E-01  1.1783448853000E+00
131  1.3000000000000E+00 -2.3650548169185E-01  1.3045694453134E+00
132  1.3100000000000E+00 -2.5169457286695E-01  1.4215615933634E+00
133  1.3200000000000E+00 -2.6459810830669E-01  1.5273767417451E+00