Eu    ONCVPSP-4.0.1  r_core=   2.01108   1.60216   1.90567   1.35507
63.0000     17.0000      241015    zatom,zion,pspd
8      11   3     4   600     0    pspcod,pspxc,lmax,lloc,mmax,r2well
5.99000000  4.00000000  0.00000000    rchrg fchrg qchrg
3     2     2     2     0    nproj
1     1           extension_switch
0                         1.2457495604519E+01  2.6959700750315E+00  5.1316308841404E-01
1  0.0000000000000E+00 -8.6381557462545E-10  2.1505792424659E-09 -3.3570592417043E-09
2  1.0000000000000E-02  4.9663768973011E-02 -2.9588463781145E-02  4.7654224944224E-02
3  2.0000000000000E-02  9.9182453615876E-02 -5.8848593863116E-02  9.4770958487803E-02
4  3.0000000000000E-02  1.4841243719102E-01 -8.7455946168172E-02  1.4081911791156E-01
5  4.0000000000000E-02  1.9721301975306E-01 -1.1509380870680E-01  1.8528036241110E-01
6  5.0000000000000E-02  2.4544783078478E-01 -1.4145695028804E-01  2.2765527629621E-01
7  6.0000000000000E-02  2.9298618754049E-01 -1.6625522997117E-01  2.6746932928625E-01
8  7.0000000000000E-02  3.3970438202437E-01 -1.8921702339012E-01  3.0427854358083E-01
9  8.0000000000000E-02  3.8548688039486E-01 -2.1009242423269E-01  3.3767480074222E-01
10  9.0000000000000E-02  4.3022741964747E-01 -2.2865618179854E-01  3.6729072555164E-01
11  1.0000000000000E-01  4.7382998767404E-01 -2.4471033866543E-01  3.9280408885388E-01
12  1.1000000000000E-01  5.1620967421414E-01 -2.5808653602556E-01  4.1394167692695E-01
13  1.2000000000000E-01  5.5729338178588E-01 -2.6864795817600E-01  4.3048258104891E-01
14  1.3000000000000E-01  5.9702038739210E-01 -2.7629089191200E-01  4.4226086761252E-01
15  1.4000000000000E-01  6.3534274762352E-01 -2.8094588113400E-01  4.4916759628663E-01
16  1.5000000000000E-01  6.7222554170168E-01 -2.8257846178444E-01  4.5115216126342E-01
17  1.6000000000000E-01  7.0764694899994E-01 -2.8118946722764E-01  4.4822293847916E-01
18  1.7000000000000E-01  7.4159815962549E-01 -2.7681489931322E-01  4.4044722976252E-01
19  1.8000000000000E-01  7.7408311871769E-01 -2.6952536556755E-01  4.2795050306307E-01
20  1.9000000000000E-01  8.0511810719102E-01 -2.5942508817411E-01  4.1091493614754E-01
21  2.0000000000000E-01  8.3473116370206E-01 -2.4665049557495E-01  3.8957727933107E-01
22  2.1000000000000E-01  8.6296135462337E-01 -2.3136841258882E-01  3.6422606084117E-01
23  2.2000000000000E-01  8.8985790073985E-01 -2.1377386984141E-01  3.3519816620389E-01
24  2.3000000000000E-01  9.1547917122006E-01 -1.9408755797595E-01  3.0287483049938E-01
25  2.4000000000000E-01  9.3989155713556E-01 -1.7255295650818E-01  2.6767708937779E-01
26  2.5000000000000E-01  9.6316823838287E-01 -1.4943317125191E-01  2.3006074126780E-01
27  2.6000000000000E-01  9.8538785928473E-01 -1.2500751791997E-01  1.9051087917259E-01
28  2.7000000000000E-01  1.0066331293934E+00 -9.9567892757421E-02  1.4953605576138E-01
29  2.8000000000000E-01  1.0269893670721E+00 -7.3414973848462E-02  1.0766215006496E-01
30  2.9000000000000E-01  1.0465430042735E+00 -4.6854299012477E-02  6.5426007902915E-02
31  3.0000000000000E-01  1.0653800715627E+00 -2.0192267950627E-02  2.3368931177415E-02
32  3.1000000000000E-01  1.0835846828257E+00  6.2678825157710E-03 -1.7969906696659E-02
33  3.2000000000000E-01  1.1012375392679E+00  3.2230080667880E-02 -5.8060040707847E-02
34  3.3000000000000E-01  1.1184144722268E+00  5.7409350112104E-02 -9.6386210664998E-02
35  3.4000000000000E-01  1.1351850440050E+00  8.1535619121195E-02 -1.3245469586445E-01
36  3.5000000000000E-01  1.1516112253678E+00  1.0435736138434E-01 -1.6579941127925E-01
37  3.6000000000000E-01  1.1677461675593E+00  1.2564502221040E-01 -1.9598769097751E-01
38  3.7000000000000E-01  1.1836330856657E+00  1.4519418655190E-01 -2.2262568781006E-01
39  3.8000000000000E-01  1.1993042689185E+00  1.6282844808031E-01 -2.4536332259763E-01
40  3.9000000000000E-01  1.2147802320864E+00  1.7840194192350E-01 -2.6389872106177E-01
41  4.0000000000000E-01  1.2300690204718E+00  1.9180150752953E-01 -2.7798208251916E-01
42  4.1000000000000E-01  1.2451656792283E+00  2.0294845241621E-01 -2.8741893084970E-01
43  4.2000000000000E-01  1.2600518957601E+00  2.1179989223478E-01 -2.9207270535452E-01
44  4.3000000000000E-01  1.2746958218883E+00  2.1834964759474E-01 -2.9186665680521E-01
45  4.4000000000000E-01  1.2890520802819E+00  2.2262868337423E-01 -2.8678502211416E-01
46  4.5000000000000E-01  1.3030619573960E+00  2.2470508173991E-01 -2.7687345957302E-01
47  4.6000000000000E-01  1.3166537828467E+00  2.2468354574541E-01 -2.6223873539636E-01
48  4.7000000000000E-01  1.3297434928227E+00  2.2270443609733E-01 -2.4304766126277E-01
49  4.8000000000000E-01  1.3422353728097E+00  2.1894234941300E-01 -2.1952529157522E-01
50  4.9000000000000E-01  1.3540229726156E+00  2.1360425196215E-01 -1.9195239814002E-01
51  5.0000000000000E-01  1.3649901844662E+00  2.0692718842395E-01 -1.6066224879391E-01
52  5.1000000000000E-01  1.3750124728101E+00  1.9917559052686E-01 -1.2603672507639E-01
53  5.2000000000000E-01  1.3839582424706E+00  1.9063821550321E-01 -8.8501822241645E-02
54  5.3000000000000E-01  1.3916903299256E+00  1.8162474901990E-01 -4.8522582633323E-02
55  5.4000000000000E-01  1.3980676008156E+00  1.7246211157684E-01 -6.5975206018074E-03
56  5.5000000000000E-01  1.4029466352938E+00  1.6349051124213E-01  3.6747396356929E-02
57  5.6000000000000E-01  1.4061834815720E+00  1.5505928895540E-01  8.0965139820093E-02
58  5.7000000000000E-01  1.4076354569811E+00  1.4752260544577E-01  1.2549431066455E-01
59  5.8000000000000E-01  1.4071629750929E+00  1.4123502102613E-01  1.6976604792076E-01
60  5.9000000000000E-01  1.4046313769369E+00  1.3654702111351E-01  2.1321107379064E-01
61  6.0000000000000E-01  1.3999127441070E+00  1.3380054126330E-01  2.5526679027282E-01
62  6.1000000000000E-01  1.3928876715983E+00  1.3332454577132E-01  2.9538434177455E-01
63  6.2000000000000E-01  1.3834469785343E+00  1.3543071348748E-01  3.3303555807248E-01
64  6.3000000000000E-01  1.3714933355519E+00  1.4040928340177E-01  3.6771969301362E-01
65  6.4000000000000E-01  1.3569427884876E+00  1.4852511080777E-01  3.9896987643416E-01
66  6.5000000000000E-01  1.3397261591543E+00  1.6001398245298E-01  4.2635919987511E-01
67  6.6000000000000E-01  1.3197903053917E+00  1.7507923606507E-01  4.4950636077440E-01
68  6.7000000000000E-01  1.2970992242087E+00  1.9388872604191E-01  4.6808079485817E-01
69  6.8000000000000E-01  1.2716349836820E+00  2.1657217295365E-01  4.8180723238123E-01
70  6.9000000000000E-01  1.2433984713166E+00  2.4321892987827E-01  4.9046962061058E-01
71  7.0000000000000E-01  1.2124099487839E+00  2.7387619354022E-01  4.9391436241520E-01
72  7.1000000000000E-01  1.1787094052972E+00  3.0854768280760E-01  4.9205282893650E-01
73  7.2000000000000E-01  1.1423567043411E+00  3.4719280140083E-01  4.8486311295540E-01
74  7.3000000000000E-01  1.1034315209962E+00  3.8972629574837E-01  4.7239099864204E-01
75  7.4000000000000E-01  1.0620330696754E+00  4.3601841287613E-01  4.5475013274760E-01
76  7.5000000000000E-01  1.0182796246583E+00  4.8589555711274E-01  4.3212139186424E-01
77  7.6000000000000E-01  9.7230783835968E-01  5.3914143831964E-01  4.0475145000941E-01
78  7.7000000000000E-01  9.2427186474628E-01  5.9549869840041E-01  3.7295056035300E-01
79  7.8000000000000E-01  8.7434229769954E-01  6.5467099707473E-01  3.3708957430002E-01
80  7.9000000000000E-01  8.2270493636793E-01  7.1632553241938E-01  2.9759623021259E-01
81  8.0000000000000E-01  7.6955939163722E-01  7.8009596653721E-01  2.5495075271993E-01
82  8.1000000000000E-01  7.1511754973460E-01  8.4558572200019E-01  2.0968081168752E-01
83  8.2000000000000E-01  6.5960191064956E-01  9.1237161047928E-01  1.6235589741218E-01
84  8.3000000000000E-01  6.0324382047630E-01  9.8000775128603E-01  1.1358117537393E-01
85  8.4000000000000E-01  5.4628161793710E-01  1.0480297344529E+00  6.3990889834189E-02
86  8.5000000000000E-01  4.8895871622008E-01  1.1159589805148E+00  1.4241390647684E-02
87  8.6000000000000E-01  4.3152164184414E-01  1.1833072473476E+00 -3.4996138192024E-02
88  8.7000000000000E-01  3.7421805254005E-01  1.2495812333003E+00 -8.3043166586903E-02
89  8.8000000000000E-01  3.1729475611057E-01  1.3142872254221E+00 -1.2922143908130E-01
90  8.9000000000000E-01  2.6099575190051E-01  1.3769357418410E+00 -1.7286064329502E-01
91  9.0000000000000E-01  2.0556031588272E-01  1.4370461182789E+00 -2.1330604085069E-01
92  9.1000000000000E-01  1.5122114945452E-01  1.4941509902625E+00 -2.4992597642805E-01
93  9.2000000000000E-01  9.8202610860381E-02  1.5478006247798E+00 -2.8211918234504E-01
94  9.3000000000000E-01  4.6719046732438E-02  1.5975670578831E+00 -3.0932179872578E-01
95  9.4000000000000E-01 -3.0267604081551E-03  1.6430479980038E+00 -3.3101403281256E-01
96  9.5000000000000E-01 -5.0845014682535E-02  1.6838704584451E+00 -3.4672638521920E-01
97  9.6000000000000E-01 -9.6560187412626E-02  1.7196940866030E+00 -3.5604537584662E-01
98  9.7000000000000E-01 -1.4001214582078E-01  1.7502141618207E+00 -3.5861870766041E-01
99  9.8000000000000E-01 -1.8105712219312E-01  1.7751642383634E+00 -3.5415981249497E-01
100  9.9000000000000E-01 -2.1956851808017E-01  1.7943184146775E+00 -3.4245172937186E-01
101  1.0000000000000E+00 -2.5543754036499E-01  1.8074932148210E+00 -3.2335027241025E-01
102  1.0100000000000E+00 -2.8857366824468E-01  1.8145490725864E+00 -2.9678645214682E-01
103  1.0200000000000E+00 -3.1890495231214E-01  1.8153914133452E+00 -2.6276812089756E-01
104  1.0300000000000E+00 -3.4637814894017E-01  1.8099713328802E+00 -2.2138081955729E-01
105  1.0400000000000E+00 -3.7095869503197E-01  1.7982858764183E+00 -1.7278780990426E-01
106  1.0500000000000E+00 -3.9263052986882E-01  1.7803779246119E+00 -1.1722928296976E-01
107  1.0600000000000E+00 -4.1139577222508E-01  1.7563356963110E+00 -5.5020740299327E-02
108  1.0700000000000E+00 -4.2727426211157E-01  1.7262918805579E+00  1.3449449027113E-02
109  1.0800000000000E+00 -4.4030297742008E-01  1.6904224122918E+00  8.7723306963644E-02
110  1.0900000000000E+00 -4.5053533636591E-01  1.6489449077480E+00  1.6727730642405E-01
111  1.1000000000000E+00 -4.5804039694922E-01  1.6021167764859E+00  2.5152721289321E-01
112  1.1100000000000E+00 -4.6290196467968E-01  1.5502330273908E+00  3.3983368268799E-01
113  1.1200000000000E+00 -4.6521761953869E-01  1.4936237859119E+00  4.3150858735988E-01
114  1.1300000000000E+00 -4.6509767261030E-01  1.4326515393020E+00  5.2582202802956E-01
115  1.1400000000000E+00 -4.6266406201558E-01  1.3677081257812E+00  6.2200999724376E-01
116  1.1500000000000E+00 -4.5804919678070E-01  1.2992114825013E+00  7.1928263903997E-01
117  1.1600000000000E+00 -4.5139475609958E-01  1.2276021660774E+00  8.1683304990412E-01
118  1.1700000000000E+00 -4.4285045018346E-01  1.1533396584552E+00  9.1384655396134E-01
119  1.1800000000000E+00 -4.3257274758819E-01  1.0768984702196E+00  1.0095103744693E+00
120  1.1900000000000E+00 -4.2072357267731E-01  9.9876405335947E-01  1.1030236102433E+00
121  1.2000000000000E+00 -4.0746897579492E-01  9.1942853627567E-01  1.1936074092004E+00
122  1.2100000000000E+00 -3.9297777792748E-01  8.3938629575992E-01  1.2805152115310E+00
123  1.2200000000000E+00 -3.7742019123909E-01  7.5912938416243E-01  1.3630429110891E+00
124  1.2300000000000E+00 -3.6096641703527E-01  6.7914283539493E-01  1.4405387549290E+00
125  1.2400000000000E+00 -3.4378522359609E-01  5.9989988119084E-01  1.5124127667834E+00
126  1.2500000000000E+00 -3.2604250812806E-01  5.2185711976814E-01  1.5781454393918E+00
127  1.2600000000000E+00 -3.0789984999207E-01  4.4544969308744E-01  1.6372953926525E+00
128  1.2700000000000E+00 -2.8951306661204E-01  3.7108654697725E-01  1.6895056380477E+00
129  1.2800000000000E+00 -2.7103078932823E-01  2.9914587119739E-01  1.7345080235870E+00
130  1.2900000000000E+00 -2.5259308413208E-01  2.2997084450527E-01  1.7721253569925E+00
131  1.3000000000000E+00 -2.3433015207629E-01  1.6386584400332E-01  1.8022706160071E+00
132  1.3100000000000E+00 -2.1636115650272E-01  1.0109331923998E-01  1.8249425523945E+00
133  1.3200000000000E+00 -1.9879323938953E-01  4.1871580497460E-02  1.8402168791714E+00
134  1.3300000000000E+00 -1.8172080745079E-01 -1.3626191636325E-02  1.8482320972779E+00
135  1.3400000000000E+00 -1.6522519104173E-01 -6.5271338899461E-02  1.8491688463878E+00
136  1.3500000000000E+00 -1.4937480056731E-01 -1.1297708537559E-01  1.8432218092794E+00
137  1.3600000000000E+00 -1.3422595639406E-01 -1.5669324418904E-01  1.8305613876531E+00
138  1.3700000000000E+00 -1.1982404986316E-01 -1.9640006852961E-01  1.8113217295562E+00
139  1.3800000000000E+00 -1.0620388226375E-01 -2.3210678758184E-01  1.7856611681935E+00
140  1.3900000000000E+00 -9.3389953636422E-02 -2.6385110920066E-01  1.7537896849594E+00
141  1.4000000000000E+00 -8.1397076740329E-02 -2.9169747689805E-01  1.7159650275153E+00
142  1.4100000000000E+00 -7.0231051231337E-02 -3.1573516643761E-01  1.6724894343227E+00
143  1.4200000000000E+00 -5.9889395831710E-02 -3.3607620972997E-01  1.6237057493360E+00
144  1.4300000000000E+00 -5.0362124029834E-02 -3.5285318581014E-01  1.5699932643241E+00
145  1.4400000000000E+00 -4.1632550992638E-02 -3.6621691011633E-01  1.5117633221660E+00
146  1.4500000000000E+00 -3.3678119421664E-02 -3.7633405355926E-01  1.4494547334804E+00
147  1.4600000000000E+00 -2.6471232371194E-02 -3.8338472250016E-01  1.3835290598870E+00
148  1.4700000000000E+00 -1.9980081519089E-02 -3.8756002989063E-01  1.3144658166860E+00
149  1.4800000000000E+00 -1.4169459982212E-02 -3.8905968666586E-01  1.2427576472051E+00
150  1.4900000000000E+00 -9.0015495151485E-03 -3.8808964093121E-01  1.1689055195470E+00
151  1.5000000000000E+00 -4.4366727873002E-03 -3.8485979066544E-01  1.0934139947506E+00
152  1.5100000000000E+00 -4.3400241557950E-04 -3.7958179347629E-01  1.0167866125512E+00
153  1.5200000000000E+00  3.0477805306906E-03 -3.7246699464444E-01  9.3952143842013E-01
154  1.5300000000000E+00  6.0498847056531E-03 -3.6372449208775E-01  8.6210681194733E-01
155  1.5400000000000E+00  8.6128683138297E-03 -3.5355935413156E-01  7.8501733289129E-01
156  1.5500000000000E+00  1.0776164370254E-02 -3.4217100319354E-01  7.0871011748491E-01
157  1.5600000000000E+00  1.2577673943022E-02 -3.2975177552606E-01  6.3362135305077E-01
158  1.5700000000000E+00  1.4053428722962E-02 -3.1648566425411E-01  5.6016317471491E-01
159  1.5800000000000E+00  1.5237323076521E-02 -3.0254725002360E-01  4.8872088342574E-01
160  1.5900000000000E+00  1.6160914604238E-02 -2.8810082075975E-01  4.1965052007185E-01
161  1.6000000000000E+00  1.6853291121217E-02 -2.7329967920637E-01  3.5327680561314E-01
162  1.6100000000000E+00  1.7341000986830E-02 -2.5828563438301E-01  2.8989145299282E-01
163  1.6200000000000E+00  1.7648042786560E-02 -2.4318867064944E-01  2.2975185219093E-01
164  1.6300000000000E+00  1.7795909519031E-02 -2.2812678573577E-01  1.7308012527640E-01
165  1.6400000000000E+00  1.7803681775440E-02 -2.1320598725444E-01  1.2006254497200E-01
166  1.6500000000000E+00  1.7688163756622E-02 -1.9852043528947E-01  7.0849305975057E-02
167  1.6600000000000E+00  1.7464055546554E-02 -1.8415271732344E-01  2.5554635432867E-02
168  1.6700000000000E+00  1.7144154676146E-02 -1.7017424041262E-01 -1.5742774563553E-02
169  1.6800000000000E+00  1.6739579849895E-02 -1.5664572477629E-01 -5.2999031725567E-02
170  1.6900000000000E+00  1.6260009583638E-02 -1.4361778220335E-01 -8.6204027592029E-02
171  1.7000000000000E+00  1.5713928688199E-02 -1.3113156280930E-01 -1.1538016340906E-01
172  1.7100000000000E+00  1.5108875007905E-02 -1.1921945136564E-01 -1.4058084878972E-01
173  1.7200000000000E+00  1.4451681256594E-02 -1.0790580165909E-01 -1.6188878423455E-01
174  1.7300000000000E+00  1.3748703249076E-02 -9.7207684976402E-02 -1.7941407790654E-01
175  1.7400000000000E+00  1.3006030922350E-02 -8.7135644547455E-02 -1.9329220252644E-01
176  1.7500000000000E+00  1.2229675798260E-02 -7.7694437887524E-02 -2.0368183078854E-01
177  1.7600000000000E+00  1.1425730575249E-02 -6.8883754608275E-02 -2.1076257405874E-01
178  1.7700000000000E+00  1.0600497105083E-02 -6.0698898081146E-02 -2.1473265003269E-01
179  1.7800000000000E+00  9.7605796993297E-03 -5.3131420513583E-02 -2.1580650507071E-01
180  1.7900000000000E+00  8.9129415860666E-03 -4.6169702784484E-02 -2.1421241518878E-01
181  1.8000000000000E+00  8.0649231409023E-03 -3.9799471951012E-02 -2.1019008860928E-01
182  1.8100000000000E+00  7.2242214082404E-03 -3.4004251210987E-02 -2.0398829081111E-01
183  1.8200000000000E+00  6.3988312398784E-03 -2.8765738768962E-02 -1.9586251151052E-01
184  1.8300000000000E+00  5.5969491966856E-03 -2.4064113796944E-02 -1.8607269113854E-01
185  1.8400000000000E+00  4.8268421432086E-03 -1.9878269386693E-02 -1.7488102240966E-01
186  1.8500000000000E+00  4.0966831697610E-03 -1.6185973929810E-02 -1.6254984081298E-01
187  1.8600000000000E+00  3.4143581774916E-03 -1.2963963976926E-02 -1.4933961563611E-01
188  1.8700000000000E+00  2.7872470131109E-03 -1.0187972880189E-02 -1.3550705154266E-01
189  1.8800000000000E+00  2.2220002650523E-03 -7.8327377591575E-03 -1.2130326184758E-01
190  1.8900000000000E+00  1.7241299024792E-03 -5.8715784072148E-03 -1.0697254460326E-01
191  1.9000000000000E+00  1.2982592941777E-03 -4.2774136235221E-03 -9.2749405102479E-02
192  1.9100000000000E+00  9.4660935909124E-04 -3.0198614239124E-03 -7.8860642435472E-02
193  1.9200000000000E+00  6.5345014792369E-04 -2.0311927122173E-03 -6.5567111594994E-02
194  1.9300000000000E+00  4.0121451179960E-04 -1.2423518921596E-03 -5.3116565044937E-02
195  1.9400000000000E+00  1.9962535528464E-04 -6.4784383787758E-04 -4.1659942163775E-02
196  1.9500000000000E+00  5.2572052013370E-05 -2.3279628680507E-04 -3.1342923503702E-02
197  1.9600000000000E+00 -3.9880255546708E-05  2.2338958579475E-05 -2.2298961953253E-02
198  1.9700000000000E+00 -8.2150265857512E-05  1.4301853819116E-04 -1.4649995223916E-02
199  1.9800000000000E+00 -8.3323738090416E-05  1.6081336491461E-04 -8.5086162958043E-03
200  1.9900000000000E+00 -5.6554471283794E-05  1.1212111665986E-04 -3.9526649982458E-03
201  2.0000000000000E+00 -2.1748500588535E-05  4.3417531273310E-05 -1.1185344613026E-03
202  2.0100000000000E+00 -1.3418667311439E-06  2.8062525375727E-06 -4.0536202157484E-05
203  2.0200000000000E+00  8.6861503122714E-07 -1.6976009687543E-06  3.5826681884887E-05
204  2.0300000000000E+00 -3.8556666872922E-07  7.5755799405877E-07 -1.8284462391217E-05
205  2.04  0. -0.  0.
206  2.05  0. -0.  0.
207  2.06  0.  0.  0.
208  2.07  0.  0.  0.
209  2.08  0.  0.  0.
210  2.09  0.  0.  0.
211  2.10  0.  0.  0.
212  2.11  0.  0.  0.
213  2.12  0.  0.  0.
214  2.13  0.  0.  0.
215  2.14  0.  0.  0.
216  2.15  0.  0.  0.
217  2.16  0.  0.  0.
218  2.17  0.  0.  0.
219  2.18  0.  0.  0.
220  2.19  0.  0.  0.
221  2.20  0.  0.  0.
222  2.21  0.  0.  0.
223  2.22  0.  0.  0.
224  2.23  0.  0.  0.
225  2.24  0.  0.  0.
226  2.25  0.  0.  0.
227  2.26  0.  0.  0.
228  2.27  0.  0.  0.
229  2.28  0.  0.  0.
230  2.29  0.  0.  0.
231  2.30  0.  0.  0.
232  2.31  0.  0.  0.
233  2.32  0.  0.  0.
234  2.33  0.  0.  0.
235  2.34  0.  0.  0.
236  2.35  0.  0.  0.
237  2.36  0.  0.  0.
238  2.37  0.  0.  0.
239  2.38  0.  0.  0.
240  2.39  0.  0.  0.
241  2.40  0.  0.  0.
242  2.41  0.  0.  0.
243  2.42  0.  0.  0.
244  2.43  0.  0.  0.
245  2.44  0.  0.  0.
246  2.45  0.  0.  0.
247  2.46  0.  0.  0.
248  2.47  0.  0.  0.
249  2.48  0.  0.  0.
250  2.49  0.  0.  0.
251  2.50  0.  0.  0.
252  2.51  0.  0.  0.
253  2.52  0.  0.  0.
254  2.53  0.  0.  0.
255  2.54  0.  0.  0.
256  2.55  0.  0.  0.
257  2.56  0.  0.  0.
258  2.57  0.  0.  0.
259  2.58  0.  0.  0.
260  2.59  0.  0.  0.
261  2.60  0.  0.  0.
262  2.61  0.  0.  0.
263  2.62  0.  0.  0.
264  2.63  0.  0.  0.
265  2.64  0.  0.  0.
266  2.65  0.  0.  0.
267  2.66  0.  0.  0.
268  2.67  0.  0.  0.
269  2.68  0.  0.  0.
270  2.69  0.  0.  0.
271  2.70  0.  0.  0.
272  2.71  0.  0.  0.
273  2.72  0.  0.  0.
274  2.73  0.  0.  0.
275  2.74  0.  0.  0.
276  2.75  0.  0.  0.
277  2.76  0.  0.  0.
278  2.77  0.  0.  0.
279  2.78  0.  0.  0.
280  2.79  0.  0.  0.
281  2.80  0.  0.  0.
282  2.81  0.  0.  0.
283  2.82  0.  0.  0.
284  2.83  0.  0.  0.
285  2.84  0.  0.  0.
286  2.85  0.  0.  0.
287  2.86  0.  0.  0.
288  2.87  0.  0.  0.
289  2.88  0.  0.  0.
290  2.89  0.  0.  0.
291  2.90  0.  0.  0.
292  2.91  0.  0.  0.
293  2.92  0.  0.  0.
294  2.93  0.  0.  0.
295  2.94  0.  0.  0.
296  2.95  0.  0.  0.
297  2.96  0.  0.  0.
298  2.97  0.  0.  0.
299  2.98  0.  0.  0.
300  2.99  0.  0.  0.
301  3.00  0.  0.  0.
302  3.01  0.  0.  0.
303  3.02  0.  0.  0.
304  3.03  0.  0.  0.
305  3.04  0.  0.  0.
306  3.05  0.  0.  0.
307  3.06  0.  0.  0.
308  3.07  0.  0.  0.
309  3.08  0.  0.  0.
310  3.09  0.  0.  0.
311  3.10  0.  0.  0.
312  3.11  0.  0.  0.
313  3.12  0.  0.  0.
314  3.13  0.  0.  0.
315  3.14  0.  0.  0.
316  3.15  0.  0.  0.
317  3.16  0.  0.  0.
318  3.17  0.  0.  0.
319  3.18  0.  0.  0.
320  3.19  0.  0.  0.
321  3.20  0.  0.  0.
322  3.21  0.  0.  0.
323  3.22  0.  0.  0.
324  3.23  0.  0.  0.
325  3.24  0.  0.  0.
326  3.25  0.  0.  0.
327  3.26  0.  0.  0.
328  3.27  0.  0.  0.
329  3.28  0.  0.  0.
330  3.29  0.  0.  0.
331  3.30  0.  0.  0.
332  3.31  0.  0.  0.
333  3.32  0.  0.  0.
334  3.33  0.  0.  0.
335  3.34  0.  0.  0.
336  3.35  0.  0.  0.
337  3.36  0.  0.  0.
338  3.37  0.  0.  0.
339  3.38  0.  0.  0.
340  3.39  0.  0.  0.
341  3.40  0.  0.  0.
342  3.41  0.  0.  0.
343  3.42  0.  0.  0.
344  3.43  0.  0.  0.
345  3.44  0.  0.  0.
346  3.45  0.  0.  0.
347  3.46  0.  0.  0.
348  3.47  0.  0.  0.
349  3.48  0.  0.  0.
350  3.49  0.  0.  0.
351  3.50  0.  0.  0.
352  3.51  0.  0.  0.
353  3.52  0.  0.  0.
354  3.53  0.  0.  0.
355  3.54  0.  0.  0.
356  3.55  0.  0.  0.
357  3.56  0.  0.  0.
358  3.57  0.  0.  0.
359  3.58  0.  0.  0.
360  3.59  0.  0.  0.
361  3.60  0.  0.  0.
362  3.61  0.  0.  0.
363  3.62  0.  0.  0.
364  3.63  0.  0.  0.
365  3.64  0.  0.  0.
366  3.65  0.  0.  0.
367  3.66  0.  0.  0.
368  3.67  0.  0.  0.
369  3.68  0.  0.  0.
370  3.69  0.  0.  0.
371  3.70  0.  0.  0.
372  3.71  0.  0.  0.
373  3.72  0.  0.  0.
374  3.73  0.  0.  0.
375  3.74  0.  0.  0.
376  3.75  0.  0.  0.
377  3.76  0.  0.  0.
378  3.77  0.  0.  0.
379  3.78  0.  0.  0.
380  3.79  0.  0.  0.
381  3.80  0.  0.  0.
382  3.81  0.  0.  0.
383  3.82  0.  0.  0.
384  3.83  0.  0.  0.
385  3.84  0.  0.  0.
386  3.85  0.  0.  0.
387  3.86  0.  0.  0.
388  3.87  0.  0.  0.
389  3.88  0.  0.  0.
390  3.89  0.  0.  0.
391  3.90  0.  0.  0.
392  3.91  0.  0.  0.
393  3.92  0.  0.  0.
394  3.93  0.  0.  0.
395  3.94  0.  0.  0.
396  3.95  0.  0.  0.
397  3.96  0.  0.  0.
398  3.97  0.  0.  0.
399  3.98  0.  0.  0.
400  3.99  0.  0.  0.
401  4.00  0.  0.  0.
402  4.01  0.  0.  0.
403  4.02  0.  0.  0.
404  4.03  0.  0.  0.
405  4.04  0.  0.  0.
406  4.05  0.  0.  0.
407  4.06  0.  0.  0.
408  4.07  0.  0.  0.
409  4.08  0.  0.  0.
410  4.09  0.  0.  0.
411  4.10  0.  0.  0.
412  4.11  0.  0.  0.
413  4.12  0.  0.  0.
414  4.13  0.  0.  0.
415  4.14  0.  0.  0.
416  4.15  0.  0.  0.
417  4.16  0.  0.  0.
418  4.17  0.  0.  0.
419  4.18  0.  0.  0.
420  4.19  0.  0.  0.
421  4.20  0.  0.  0.
422  4.21  0.  0.  0.
423  4.22  0.  0.  0.
424  4.23  0.  0.  0.
425  4.24  0.  0.  0.
426  4.25  0.  0.  0.
427  4.26  0.  0.  0.
428  4.27  0.  0.  0.
429  4.28  0.  0.  0.
430  4.29  0.  0.  0.
431  4.30  0.  0.  0.
432  4.31  0.  0.  0.
433  4.32  0.  0.  0.
434  4.33  0.  0.  0.
435  4.34  0.  0.  0.
436  4.35  0.  0.  0.
437  4.36  0.  0.  0.
438  4.37  0.  0.  0.
439  4.38  0.  0.  0.
440  4.39  0.  0.  0.
441  4.40  0.  0.  0.
442  4.41  0.  0.  0.
443  4.42  0.  0.  0.
444  4.43  0.  0.  0.
445  4.44  0.  0.  0.
446  4.45  0.  0.  0.
447  4.46  0.  0.  0.
448  4.47  0.  0.  0.
449  4.48  0.  0.  0.
450  4.49  0.  0.  0.
451  4.50  0.  0.  0.
452  4.51  0.  0.  0.
453  4.52  0.  0.  0.
454  4.53  0.  0.  0.
455  4.54  0.  0.  0.
456  4.55  0.  0.  0.
457  4.56  0.  0.  0.
458  4.57  0.  0.  0.
459  4.58  0.  0.  0.
460  4.59  0.  0.  0.
461  4.60  0.  0.  0.
462  4.61  0.  0.  0.
463  4.62  0.  0.  0.
464  4.63  0.  0.  0.
465  4.64  0.  0.  0.
466  4.65  0.  0.  0.
467  4.66  0.  0.  0.
468  4.67  0.  0.  0.
469  4.68  0.  0.  0.
470  4.69  0.  0.  0.
471  4.70  0.  0.  0.
472  4.71  0.  0.  0.
473  4.72  0.  0.  0.
474  4.73  0.  0.  0.
475  4.74  0.  0.  0.
476  4.75  0.  0.  0.
477  4.76  0.  0.  0.
478  4.77  0.  0.  0.
479  4.78  0.  0.  0.
480  4.79  0.  0.  0.
481  4.80  0.  0.  0.
482  4.81  0.  0.  0.
483  4.82  0.  0.  0.
484  4.83  0.  0.  0.
485  4.84  0.  0.  0.
486  4.85  0.  0.  0.
487  4.86  0.  0.  0.
488  4.87  0.  0.  0.
489  4.88  0.  0.  0.
490  4.89  0.  0.  0.
491  4.90  0.  0.  0.
492  4.91  0.  0.  0.
493  4.92  0.  0.  0.
494  4.93  0.  0.  0.
495  4.94  0.  0.  0.
496  4.95  0.  0.  0.
497  4.96  0.  0.  0.
498  4.97  0.  0.  0.
499  4.98  0.  0.  0.
500  4.99  0.  0.  0.
501  5.00  0.  0.  0.
502  5.01  0.  0.  0.
503  5.02  0.  0.  0.
504  5.03  0.  0.  0.
505  5.04  0.  0.  0.
506  5.05  0.  0.  0.
507  5.06  0.  0.  0.
508  5.07  0.  0.  0.
509  5.08  0.  0.  0.
510  5.09  0.  0.  0.
511  5.10  0.  0.  0.
512  5.11  0.  0.  0.
513  5.12  0.  0.  0.
514  5.13  0.  0.  0.
515  5.14  0.  0.  0.
516  5.15  0.  0.  0.
517  5.16  0.  0.  0.
518  5.17  0.  0.  0.
519  5.18  0.  0.  0.
520  5.19  0.  0.  0.
521  5.20  0.  0.  0.
522  5.21  0.  0.  0.
523  5.22  0.  0.  0.
524  5.23  0.  0.  0.
525  5.24  0.  0.  0.
526  5.25  0.  0.  0.
527  5.26  0.  0.  0.
528  5.27  0.  0.  0.
529  5.28  0.  0.  0.
530  5.29  0.  0.  0.
531  5.30  0.  0.  0.
532  5.31  0.  0.  0.
533  5.32  0.  0.  0.
534  5.33  0.  0.  0.
535  5.34  0.  0.  0.
536  5.35  0.  0.  0.
537  5.36  0.  0.  0.
538  5.37  0.  0.  0.
539  5.38  0.  0.  0.
540  5.39  0.  0.  0.
541  5.40  0.  0.  0.
542  5.41  0.  0.  0.
543  5.42  0.  0.  0.
544  5.43  0.  0.  0.
545  5.44  0.  0.  0.
546  5.45  0.  0.  0.
547  5.46  0.  0.  0.
548  5.47  0.  0.  0.
549  5.48  0.  0.  0.
550  5.49  0.  0.  0.
551  5.50  0.  0.  0.
552  5.51  0.  0.  0.
553  5.52  0.  0.  0.
554  5.53  0.  0.  0.
555  5.54  0.  0.  0.
556  5.55  0.  0.  0.
557  5.56  0.  0.  0.
558  5.57  0.  0.  0.
559  5.58  0.  0.  0.
560  5.59  0.  0.  0.
561  5.60  0.  0.  0.
562  5.61  0.  0.  0.
563  5.62  0.  0.  0.
564  5.63  0.  0.  0.
565  5.64  0.  0.  0.
566  5.65  0.  0.  0.
567  5.66  0.  0.  0.
568  5.67  0.  0.  0.
569  5.68  0.  0.  0.
570  5.69  0.  0.  0.
571  5.70  0.  0.  0.
572  5.71  0.  0.  0.
573  5.72  0.  0.  0.
574  5.73  0.  0.  0.
575  5.74  0.  0.  0.
576  5.75  0.  0.  0.
577  5.76  0.  0.  0.
578  5.77  0.  0.  0.
579  5.78  0.  0.  0.
580  5.79  0.  0.  0.
581  5.80  0.  0.  0.
582  5.81  0.  0.  0.
583  5.82  0.  0.  0.
584  5.83  0.  0.  0.
585  5.84  0.  0.  0.
586  5.85  0.  0.  0.
587  5.86  0.  0.  0.
588  5.87  0.  0.  0.
589  5.88  0.  0.  0.
590  5.89  0.  0.  0.
591  5.90  0.  0.  0.
592  5.91  0.  0.  0.
593  5.92  0.  0.  0.
594  5.93  0.  0.  0.
595  5.94  0.  0.  0.
596  5.95  0.  0.  0.
597  5.96  0.  0.  0.
598  5.97  0.  0.  0.
599  5.98  0.  0.  0.
600  5.99  0.  0.  0.
1                         6.7301431528876E+00  6.0210712079345E-01
1  0.0000000000000E+00  6.6845133317450E-09 -3.1298133446045E-08
2  1.0000000000000E-02  1.2371210870432E-03 -2.6503141488632E-03
3  2.0000000000000E-02  4.9367468906094E-03 -1.0550352401032E-02
4  3.0000000000000E-02  1.1063870902871E-02 -2.3548374764134E-02
5  4.0000000000000E-02  1.9560831245787E-02 -4.1394704940897E-02
6  5.0000000000000E-02  3.0348320496050E-02 -6.3746502222254E-02
7  6.0000000000000E-02  4.3326772446982E-02 -9.0174316058299E-02
8  7.0000000000000E-02  5.8378099421118E-02 -1.2017030001664E-01
9  8.0000000000000E-02  7.5367747062771E-02 -1.5315793053959E-01
10  9.0000000000000E-02  9.4147027474596E-02 -1.8850304746157E-01
11  1.0000000000000E-01  1.1455568623069E-01 -2.2552600817350E-01
12  1.1000000000000E-01  1.3642465430157E-01 -2.6351472608699E-01
13  1.2000000000000E-01  1.5957893234925E-01 -3.0173834705483E-01
14  1.3000000000000E-01  1.8384055226253E-01 -3.3946130496558E-01
15  1.4000000000000E-01  2.0903155925357E-01 -3.7595749008679E-01
16  1.5000000000000E-01  2.3497695735933E-01 -4.1052426103378E-01
17  1.6000000000000E-01  2.6150756179635E-01 -4.4249603355042E-01
18  1.7000000000000E-01  2.8846270329731E-01 -4.7125718657390E-01
19  1.8000000000000E-01  3.1569273228407E-01 -4.9625403819637E-01
20  1.9000000000000E-01  3.4306127445727E-01 -5.1700566092221E-01
21  2.0000000000000E-01  3.7044719404096E-01 -5.3311332675404E-01
22  2.1000000000000E-01  3.9774622642751E-01 -5.4426839774807E-01
23  2.2000000000000E-01  4.2487224822467E-01 -5.5025850630925E-01
24  2.3000000000000E-01  4.5175815959725E-01 -5.5097190113220E-01
25  2.4000000000000E-01  4.7835636119576E-01 -5.4639986876231E-01
26  2.5000000000000E-01  5.0463881573477E-01 -5.3663717663133E-01
27  2.6000000000000E-01  5.3059669228269E-01 -5.2188052045793E-01
28  2.7000000000000E-01  5.5623959940115E-01 -5.0242499641459E-01
29  2.8000000000000E-01  5.8159442127558E-01 -4.7865865575586E-01
30  2.9000000000000E-01  6.0670377875785E-01 -4.5105523598787E-01
31  3.0000000000000E-01  6.3162414464863E-01 -4.2016519745550E-01
32  3.1000000000000E-01  6.5642364944058E-01 -3.8660522678004E-01
33  3.2000000000000E-01  6.8117961998950E-01 -3.5104639827974E-01
34  3.3000000000000E-01  7.0597589905802E-01 -3.1420121078376E-01
35  3.4000000000000E-01  7.3089999827635E-01 -2.7680973959911E-01
36  3.5000000000000E-01  7.5604014069477E-01 -2.3962516137408E-01
37  3.6000000000000E-01  7.8148225168652E-01 -2.0339892286153E-01
38  3.7000000000000E-01  8.0730695844283E-01 -1.6886583284714E-01
39  3.8000000000000E-01  8.3358665864599E-01 -1.3672935958861E-01
40  3.9000000000000E-01  8.6038271809781E-01 -1.0764741392305E-01
41  4.0000000000000E-01  8.8774285512516E-01 -8.2218890751139E-02
42  4.1000000000000E-01  9.1569876650943E-01 -6.0971229002668E-02
43  4.2000000000000E-01  9.4426404554229E-01 -4.4349232633757E-02
44  4.3000000000000E-01  9.7343243766461E-01 -3.2705372996077E-02
45  4.4000000000000E-01  1.0031764730891E+00 -2.6291766437759E-02