Eu    ONCVPSP-4.0.1  r_core=   1.80578   1.60216   1.70093   1.60216
63.0000     17.0000      221106    zatom,zion,pspd
8      11   3     4   600     0    pspcod,pspxc,lmax,lloc,mmax,r2well
5.99000000  0.25000000  0.00000000    rchrg fchrg qchrg
2     2     2     2     0    nproj
1     1           extension_switch
0                         8.5207796407862E+00  5.2699080705993E-01
1  0.0000000000000E+00  1.6255141677135E-10 -7.3971341552070E-10
2  1.0000000000000E-02  3.8990294354796E-02 -5.6823312802040E-03
3  2.0000000000000E-02  7.7971738247523E-02 -1.1414059624950E-02
4  3.0000000000000E-02  1.1693519735900E-01 -1.7243583906075E-02
5  4.0000000000000E-02  1.5587097320042E-01 -2.3217320733712E-02
6  5.0000000000000E-02  1.9476852984805E-01 -2.9378748443637E-02
7  6.0000000000000E-02  2.3361623114466E-01 -3.5767492693785E-02
8  7.0000000000000E-02  2.7240109166325E-01 -4.2418466659438E-02
9  8.0000000000000E-02  3.1110854456649E-01 -4.9361078076901E-02
10  9.0000000000000E-02  3.4972222929533E-01 -5.6618514478990E-02
11  1.0000000000000E-01  3.8822380178658E-01 -6.4207116904804E-02
12  1.1000000000000E-01  4.2659276965339E-01 -7.2135851163933E-02
13  1.2000000000000E-01  4.6480635446840E-01 -8.0405884408380E-02
14  1.3000000000000E-01  5.0283938296998E-01 -8.9010273330503E-02
15  1.4000000000000E-01  5.4066420867204E-01 -9.7933768781728E-02
16  1.5000000000000E-01  5.7825066500033E-01 -1.0715274001441E-01
17  1.6000000000000E-01  6.1556605070838E-01 -1.1663522010929E-01
18  1.7000000000000E-01  6.5257514794812E-01 -1.2634107248512E-01
19  1.8000000000000E-01  6.8924027298834E-01 -1.3622227671748E-01
20  1.9000000000000E-01  7.2552135919359E-01 -1.4622333024268E-01
21  2.0000000000000E-01  7.6137607150063E-01 -1.5628176091252E-01
22  2.1000000000000E-01  7.9675995126478E-01 -1.6632874381790E-01
23  2.2000000000000E-01  8.3162658999778E-01 -1.7628981433458E-01
24  2.3000000000000E-01  8.6592783018702E-01 -1.8608566798377E-01
25  2.4000000000000E-01  8.9961399107713E-01 -1.9563303646141E-01
26  2.5000000000000E-01  9.3263411701214E-01 -2.0484562809025E-01
27  2.6000000000000E-01  9.6493624568420E-01 -2.1363512000517E-01
28  2.7000000000000E-01  9.9646769341460E-01 -2.2191218860487E-01
29  2.8000000000000E-01  1.0271753544093E+00 -2.2958756420821E-01
30  2.9000000000000E-01  1.0570060107839E+00 -2.3657309544510E-01
31  3.0000000000000E-01  1.0859066500475E+00 -2.4278280870030E-01
32  3.1000000000000E-01  1.1138247866653E+00 -2.4813394791669E-01
33  3.2000000000000E-01  1.1407087843001E+00 -2.5254798025266E-01
34  3.3000000000000E-01  1.1665081753425E+00 -2.5595155347819E-01
35  3.4000000000000E-01  1.1911739744038E+00 -2.5827739157765E-01
36  3.5000000000000E-01  1.2146589825392E+00 -2.5946511580318E-01
37  3.6000000000000E-01  1.2369180791072E+00 -2.5946197937616E-01
38  3.7000000000000E-01  1.2579084983461E+00 -2.5822350515862E-01
39  3.8000000000000E-01  1.2775900879557E+00 -2.5571401689469E-01
40  3.9000000000000E-01  1.2959255472138E+00 -2.5190705603999E-01
41  4.0000000000000E-01  1.3128806424260E+00 -2.4678567773428E-01
42  4.1000000000000E-01  1.3284243978035E+00 -2.4034262111213E-01
43  4.2000000000000E-01  1.3425292601763E+00 -2.3258035086400E-01
44  4.3000000000000E-01  1.3551712362860E+00 -2.2351096873474E-01
45  4.4000000000000E-01  1.3663300017441E+00 -2.1315599545417E-01
46  4.5000000000000E-01  1.3759889810979E+00 -2.0154602540989E-01
47  4.6000000000000E-01  1.3841353988032E+00 -1.8872025817226E-01
48  4.7000000000000E-01  1.3907603012556E+00 -1.7472591273974E-01
49  4.8000000000000E-01  1.3958585503865E+00 -1.5961753206611E-01
50  4.9000000000000E-01  1.3994287896633E+00 -1.4345618703383E-01
51  5.0000000000000E-01  1.4014733836635E+00 -1.2630859053047E-01
52  5.1000000000000E-01  1.4019983326891E+00 -1.0824613364152E-01
53  5.2000000000000E-01  1.4010131641759E+00 -8.9343857177756E-02
54  5.3000000000000E-01  1.3985308028993E+00 -6.9679372787233E-02
55  5.4000000000000E-01  1.3945674222063E+00 -4.9331748747051E-02
56  5.5000000000000E-01  1.3891422786889E+00 -2.8380376172919E-02
57  5.6000000000000E-01  1.3822775328712E+00 -6.9038318173046E-03
58  5.7000000000000E-01  1.3739980585949E+00  1.5021246161889E-02
59  5.8000000000000E-01  1.3643312438669E+00  3.7321253093347E-02
60  5.9000000000000E-01  1.3533067859683E+00  5.9926667215794E-02
61  6.0000000000000E-01  1.3409564836203E+00  8.2773037970215E-02
62  6.1000000000000E-01  1.3273140289577E+00  1.0580189818511E-01
63  6.2000000000000E-01  1.3124148019788E+00  1.2896158608108E-01
64  6.3000000000000E-01  1.2962956700181E+00  1.5220796412560E-01
65  6.4000000000000E-01  1.2789947946334E+00  1.7550502306441E-01
66  6.5000000000000E-01  1.2605514481064E+00  1.9882536092490E-01
67  6.6000000000000E-01  1.2410058415385E+00  2.2215052841047E-01
68  6.7000000000000E-01  1.2203989662745E+00  2.4547123386263E-01
69  6.8000000000000E-01  1.1987724501190E+00  2.6878740283480E-01
70  6.9000000000000E-01  1.1761684295204E+00  2.9210808927456E-01
71  7.0000000000000E-01  1.1526294385980E+00  3.1545123732240E-01
72  7.1000000000000E-01  1.1281983155717E+00  3.3884329477606E-01
73  7.2000000000000E-01  1.1029181268437E+00  3.6231868131345E-01
74  7.3000000000000E-01  1.0768321086616E+00  3.8591911658567E-01
75  7.4000000000000E-01  1.0499836259841E+00  4.0969281525219E-01
76  7.5000000000000E-01  1.0224161478741E+00  4.3369355791232E-01
77  7.6000000000000E-01  9.9417323845459E-01  4.5797964865512E-01
78  7.7000000000000E-01  9.6529856220419E-01  4.8261277158566E-01
79  7.8000000000000E-01  9.3583590212552E-01  5.0765676016065E-01
80  7.9000000000000E-01  9.0582918910802E-01  5.3317629446232E-01
81  8.0000000000000E-01  8.7532254062610E-01  5.5923554263480E-01
82  8.1000000000000E-01  8.4436030676540E-01  5.8589676358906E-01
83  8.2000000000000E-01  8.1298712145943E-01  6.1321888873329E-01
84  8.3000000000000E-01  7.8124795674546E-01  6.4125610090337E-01
85  8.4000000000000E-01  7.4918817781464E-01  6.7005642883784E-01
86  8.5000000000000E-01  7.1685359663639E-01  6.9966037547001E-01
87  8.6000000000000E-01  6.8429052198179E-01  7.3009959799228E-01
88  8.7000000000000E-01  6.5154580375257E-01  7.6139565709400E-01
89  8.8000000000000E-01  6.1866686964127E-01  7.9355885199089E-01
90  8.9000000000000E-01  5.8570175230051E-01  8.2658715686577E-01
91  9.0000000000000E-01  5.5269910538291E-01  8.6046527314427E-01
92  9.1000000000000E-01  5.1970820702388E-01  8.9516381065238E-01
93  9.2000000000000E-01  4.8677894957339E-01  9.3063860917239E-01
94  9.3000000000000E-01  4.5396181463541E-01  9.6683021025070E-01
95  9.4000000000000E-01  4.2130783273933E-01  1.0036634873464E+00
96  9.5000000000000E-01  3.8886852724219E-01  1.0410474405712E+00
97  9.6000000000000E-01  3.5669584233657E-01  1.0788751603890E+00
98  9.7000000000000E-01  3.2484205531301E-01  1.1170239627520E+00
99  9.8000000000000E-01  2.9335967349007E-01  1.1553556962752E+00
100  9.9000000000000E-01  2.6230131647560E-01  1.1937172202301E+00
101  1.0000000000000E+00  2.3171958465261E-01  1.2319410503955E+00
102  1.0100000000000E+00  2.0166691498897E-01  1.2698461681717E+00
103  1.0200000000000E+00  1.7219542544516E-01  1.3072389868641E+00
104  1.0300000000000E+00  1.4335674939633E-01  1.3439144677043E+00
105  1.0400000000000E+00  1.1520186158945E-01  1.3796573770115E+00
106  1.0500000000000E+00  8.7780897220177E-02  1.4142436749291E+00
107  1.0600000000000E+00  6.1142965737018E-02  1.4474420254069E+00
108  1.0700000000000E+00  3.5335960959262E-02  1.4790154165420E+00
109  1.0800000000000E+00  1.0406369031498E-02  1.5087228800568E+00
110  1.0900000000000E+00 -1.3600924367986E-02  1.5363212985514E+00
111  1.1000000000000E+00 -3.6642826293618E-02  1.5615672892405E+00
112  1.1100000000000E+00 -5.8678227184328E-02  1.5842191531282E+00
113  1.1200000000000E+00 -7.9668189026305E-02  1.6040388789839E+00
114  1.1300000000000E+00 -9.9576130393016E-02  1.6207941920238E+00
115  1.1400000000000E+00 -1.1836800799075E-01  1.6342606378440E+00
116  1.1500000000000E+00 -1.3601249461069E-01  1.6442236928448E+00
117  1.1600000000000E+00 -1.5248115366613E-01  1.6504808931064E+00
118  1.1700000000000E+00 -1.6774861076271E-01  1.6528439743432E+00
119  1.1800000000000E+00 -1.8179272300297E-01  1.6511410161497E+00
120  1.1900000000000E+00 -1.9459474694873E-01  1.6452185841770E+00
121  1.2000000000000E+00 -2.0613950634618E-01  1.6349438640830E+00
122  1.2100000000000E+00 -2.1641556084335E-01  1.6202067810217E+00
123  1.2200000000000E+00 -2.2541537698488E-01  1.6009220979842E+00
124  1.2300000000000E+00 -2.3313550273909E-01  1.5770314854246E+00
125  1.2400000000000E+00 -2.3957674668332E-01  1.5485055532013E+00
126  1.2500000000000E+00 -2.4474436272653E-01  1.5153458338532E+00
127  1.2600000000000E+00 -2.4864824087142E-01  1.4775867035491E+00
128  1.2700000000000E+00 -2.5130310399184E-01  1.4352972235928E+00
129  1.2800000000000E+00 -2.5272870990732E-01  1.3885828810345E+00
130  1.2900000000000E+00 -2.5295005716486E-01  1.3375872016962E+00
131  1.3000000000000E+00 -2.5199759186262E-01  1.2824932026088E+00
132  1.3100000000000E+00 -2.4990741155819E-01  1.2235246434242E+00
133  1.3200000000000E+00 -2.4672146077813E-01  1.1609470277168E+00
134  1.3300000000000E+00 -2.4248771087278E-01  1.0950682951451E+00
135  1.3400000000000E+00 -2.3726031490437E-01  1.0262391340260E+00
136  1.3500000000000E+00 -2.3109972592395E-01  9.5485283100049E-01
137  1.3600000000000E+00 -2.2407276435256E-01  8.8134455998622E-01
138  1.3700000000000E+00 -2.1625261721241E-01  8.0618999638770E-01
139  1.3800000000000E+00 -2.0771874863857E-01  7.2990312448816E-01
140  1.3900000000000E+00 -1.9855669743022E-01  6.5303308601144E-01
141  1.4000000000000E+00 -1.8885773333559E-01  5.7615989581752E-01
142  1.4100000000000E+00 -1.7871833931485E-01  4.9988882661867E-01
143  1.4200000000000E+00 -1.6823948211372E-01  4.2484323805719E-01
144  1.4300000000000E+00 -1.5752562816014E-01  3.5165559674914E-01
145  1.4400000000000E+00 -1.4668345598417E-01  2.8095640251359E-01
146  1.4500000000000E+00 -1.3582021004345E-01  2.1336070189837E-01
147  1.4600000000000E+00 -1.2504163405399E-01  1.4945183348708E-01
148  1.4700000000000E+00 -1.1444941450849E-01  8.9762009406400E-02
149  1.4800000000000E+00 -1.0413805611037E-01  3.4749285762676E-02
150  1.4900000000000E+00 -9.4191106533680E-02 -1.5229534158241E-02
151  1.5000000000000E+00 -8.4676644623060E-02 -5.9950528835592E-02
152  1.5100000000000E+00 -7.5642715105858E-02 -9.9352657115312E-02
153  1.5200000000000E+00 -6.7121700449445E-02 -1.3349086990934E-01
154  1.5300000000000E+00 -5.9138166019074E-02 -1.6246496936598E-01
155  1.5400000000000E+00 -5.1709770802730E-02 -1.8641138990279E-01
156  1.5500000000000E+00 -4.4847424121745E-02 -2.0550181159719E-01
157  1.5600000000000E+00 -3.8555509501747E-02 -2.1994140342644E-01
158  1.5700000000000E+00 -3.2832168514541E-02 -2.2996674671920E-01
159  1.5800000000000E+00 -2.7669645279769E-02 -2.3584342499817E-01
160  1.5900000000000E+00 -2.3054686933354E-02 -2.3786331063111E-01
161  1.6000000000000E+00 -1.8968995561368E-02 -2.3634157494438E-01
162  1.6100000000000E+00 -1.5389726554654E-02 -2.3161345135054E-01
163  1.6200000000000E+00 -1.2290027801625E-02 -2.2403078402833E-01
164  1.6300000000000E+00 -9.6396136307758E-03 -2.1395839754202E-01
165  1.6400000000000E+00 -7.4053670799378E-03 -2.0177032446422E-01
166  1.6500000000000E+00 -5.5519636743564E-03 -1.8784593034276E-01
167  1.6600000000000E+00 -4.0425096966108E-03 -1.7256597629549E-01
168  1.6700000000000E+00 -2.8391877026689E-03 -1.5630866082415E-01
169  1.6800000000000E+00 -1.9039020057039E-03 -1.3944568244357E-01
170  1.6900000000000E+00 -1.1989161048557E-03 -1.2233836756729E-01
171  1.7000000000000E+00 -6.8748275488169E-04 -1.0533387600908E-01
172  1.7100000000000E+00 -3.3441708628931E-04 -8.8761677233469E-02
173  1.7200000000000E+00 -1.0742384812925E-04 -7.2927350299867E-02
174  1.7300000000000E+00  2.0135929747808E-05 -5.8100846860074E-02
175  1.7400000000000E+00  7.5967207555557E-05 -4.4540162282161E-02
176  1.7500000000000E+00  8.5383375630200E-05 -3.2478079146384E-02
177  1.7600000000000E+00  6.9259197782545E-05 -2.2113770331619E-02
178  1.7700000000000E+00  4.3887503495949E-05 -1.3611411257381E-02
179  1.7800000000000E+00  2.0652621064518E-05 -7.1010858450835E-03
180  1.7900000000000E+00  5.8302927778842E-06 -2.6463777068398E-03
181  1.8000000000000E+00  4.1685300419518E-07 -4.1125384817687E-04
182  1.8100000000000E+00 -2.4863066347903E-08  6.1162175775012E-05
183  1.8200000000000E+00  1.6967134352652E-08 -1.6758001904177E-05
184  1.83 -0.  0.
185  1.84  0. -0.
186  1.85  0.  0.
187  1.86  0.  0.
188  1.87  0.  0.
189  1.88  0.  0.
190  1.89  0.  0.
191  1.90  0.  0.
192  1.91  0.  0.
193  1.92  0.  0.
194  1.93  0.  0.
195  1.94  0.  0.
196  1.95  0.  0.
197  1.96  0.  0.
198  1.97  0.  0.
199  1.98  0.  0.
200  1.99  0.  0.
201  2.00  0.  0.
202  2.01  0.  0.
203  2.02  0.  0.
204  2.03  0.  0.
205  2.04  0.  0.
206  2.05  0.  0.
207  2.06  0.  0.
208  2.07  0.  0.
209  2.08  0.  0.
210  2.09  0.  0.
211  2.10  0.  0.
212  2.11  0.  0.
213  2.12  0.  0.
214  2.13  0.  0.
215  2.14  0.  0.
216  2.15  0.  0.
217  2.16  0.  0.
218  2.17  0.  0.
219  2.18  0.  0.
220  2.19  0.  0.
221  2.20  0.  0.
222  2.21  0.  0.
223  2.22  0.  0.
224  2.23  0.  0.
225  2.24  0.  0.
226  2.25  0.  0.
227  2.26  0.  0.
228  2.27  0.  0.
229  2.28  0.  0.
230  2.29  0.  0.
231  2.30  0.  0.
232  2.31  0.  0.
233  2.32  0.  0.
234  2.33  0.  0.
235  2.34  0.  0.
236  2.35  0.  0.
237  2.36  0.  0.
238  2.37  0.  0.
239  2.38  0.  0.
240  2.39  0.  0.
241  2.40  0.  0.
242  2.41  0.  0.
243  2.42  0.  0.
244  2.43  0.  0.
245  2.44  0.  0.
246  2.45  0.  0.
247  2.46  0.  0.
248  2.47  0.  0.
249  2.48  0.  0.
250  2.49  0.  0.
251  2.50  0.  0.
252  2.51  0.  0.
253  2.52  0.  0.
254  2.53  0.  0.
255  2.54  0.  0.
256  2.55  0.  0.
257  2.56  0.  0.
258  2.57  0.  0.
259  2.58  0.  0.
260  2.59  0.  0.
261  2.60  0.  0.
262  2.61  0.  0.
263  2.62  0.  0.
264  2.63  0.  0.
265  2.64  0.  0.
266  2.65  0.  0.
267  2.66  0.  0.
268  2.67  0.  0.
269  2.68  0.  0.
270  2.69  0.  0.
271  2.70  0.  0.
272  2.71  0.  0.
273  2.72  0.  0.
274  2.73  0.  0.
275  2.74  0.  0.
276  2.75  0.  0.
277  2.76  0.  0.
278  2.77  0.  0.
279  2.78  0.  0.
280  2.79  0.  0.
281  2.80  0.  0.
282  2.81  0.  0.
283  2.82  0.  0.
284  2.83  0.  0.
285  2.84  0.  0.
286  2.85  0.  0.
287  2.86  0.  0.
288  2.87  0.  0.
289  2.88  0.  0.
290  2.89  0.  0.
291  2.90  0.  0.
292  2.91  0.  0.
293  2.92  0.  0.
294  2.93  0.  0.
295  2.94  0.  0.
296  2.95  0.  0.
297  2.96  0.  0.
298  2.97  0.  0.
299  2.98  0.  0.
300  2.99  0.  0.
301  3.00  0.  0.
302  3.01  0.  0.
303  3.02  0.  0.
304  3.03  0.  0.
305  3.04  0.  0.
306  3.05  0.  0.
307  3.06  0.  0.
308  3.07  0.  0.
309  3.08  0.  0.
310  3.09  0.  0.
311  3.10  0.  0.
312  3.11  0.  0.
313  3.12  0.  0.
314  3.13  0.  0.
315  3.14  0.  0.
316  3.15  0.  0.
317  3.16  0.  0.
318  3.17  0.  0.
319  3.18  0.  0.
320  3.19  0.  0.
321  3.20  0.  0.
322  3.21  0.  0.
323  3.22  0.  0.
324  3.23  0.  0.
325  3.24  0.  0.
326  3.25  0.  0.
327  3.26  0.  0.
328  3.27  0.  0.
329  3.28  0.  0.
330  3.29  0.  0.
331  3.30  0.  0.
332  3.31  0.  0.
333  3.32  0.  0.
334  3.33  0.  0.
335  3.34  0.  0.
336  3.35  0.  0.
337  3.36  0.  0.
338  3.37  0.  0.
339  3.38  0.  0.
340  3.39  0.  0.
341  3.40  0.  0.
342  3.41  0.  0.
343  3.42  0.  0.
344  3.43  0.  0.
345  3.44  0.  0.
346  3.45  0.  0.
347  3.46  0.  0.
348  3.47  0.  0.
349  3.48  0.  0.
350  3.49  0.  0.
351  3.50  0.  0.
352  3.51  0.  0.
353  3.52  0.  0.
354  3.53  0.  0.
355  3.54  0.  0.
356  3.55  0.  0.
357  3.56  0.  0.
358  3.57  0.  0.
359  3.58  0.  0.
360  3.59  0.  0.
361  3.60  0.  0.
362  3.61  0.  0.
363  3.62  0.  0.
364  3.63  0.  0.
365  3.64  0.  0.
366  3.65  0.  0.
367  3.66  0.  0.
368  3.67  0.  0.
369  3.68  0.  0.
370  3.69  0.  0.
371  3.70  0.  0.
372  3.71  0.  0.
373  3.72  0.  0.
374  3.73  0.  0.
375  3.74  0.  0.
376  3.75  0.  0.
377  3.76  0.  0.
378  3.77  0.  0.
379  3.78  0.  0.
380  3.79  0.  0.
381  3.80  0.  0.
382  3.81  0.  0.
383  3.82  0.  0.
384  3.83  0.  0.
385  3.84  0.  0.
386  3.85  0.  0.
387  3.86  0.  0.
388  3.87  0.  0.
389  3.88  0.  0.
390  3.89  0.  0.
391  3.90  0.  0.
392  3.91  0.  0.
393  3.92  0.  0.
394  3.93  0.  0.
395  3.94  0.  0.
396  3.95  0.  0.
397  3.96  0.  0.
398  3.97  0.  0.
399  3.98  0.  0.
400  3.99  0.  0.
401  4.00  0.  0.
402  4.01  0.  0.
403  4.02  0.  0.
404  4.03  0.  0.
405  4.04  0.  0.
406  4.05  0.  0.
407  4.06  0.  0.
408  4.07  0.  0.
409  4.08  0.  0.
410  4.09  0.  0.
411  4.10  0.  0.
412  4.11  0.  0.
413  4.12  0.  0.
414  4.13  0.  0.
415  4.14  0.  0.
416  4.15  0.  0.
417  4.16  0.  0.
418  4.17  0.  0.
419  4.18  0.  0.
420  4.19  0.  0.
421  4.20  0.  0.
422  4.21  0.  0.
423  4.22  0.  0.
424  4.23  0.  0.
425  4.24  0.  0.
426  4.25  0.  0.
427  4.26  0.  0.
428  4.27  0.  0.
429  4.28  0.  0.
430  4.29  0.  0.
431  4.30  0.  0.
432  4.31  0.  0.
433  4.32  0.  0.
434  4.33  0.  0.
435  4.34  0.  0.
436  4.35  0.  0.
437  4.36  0.  0.
438  4.37  0.  0.
439  4.38  0.  0.
440  4.39  0.  0.
441  4.40  0.  0.
442  4.41  0.  0.
443  4.42  0.  0.
444  4.43  0.  0.
445  4.44  0.  0.
446  4.45  0.  0.
447  4.46  0.  0.
448  4.47  0.  0.
449  4.48  0.  0.
450  4.49  0.  0.
451  4.50  0.  0.
452  4.51  0.  0.
453  4.52  0.  0.
454  4.53  0.  0.
455  4.54  0.  0.
456  4.55  0.  0.
457  4.56  0.  0.
458  4.57  0.  0.
459  4.58  0.  0.
460  4.59  0.  0.
461  4.60  0.  0.
462  4.61  0.  0.
463  4.62  0.  0.
464  4.63  0.  0.
465  4.64  0.  0.
466  4.65  0.  0.
467  4.66  0.  0.
468  4.67  0.  0.
469  4.68  0.  0.
470  4.69  0.  0.
471  4.70  0.  0.
472  4.71  0.  0.
473  4.72  0.  0.
474  4.73  0.  0.
475  4.74  0.  0.
476  4.75  0.  0.
477  4.76  0.  0.
478  4.77  0.  0.
479  4.78  0.  0.
480  4.79  0.  0.
481  4.80  0.  0.
482  4.81  0.  0.
483  4.82  0.  0.
484  4.83  0.  0.
485  4.84  0.  0.
486  4.85  0.  0.
487  4.86  0.  0.
488  4.87  0.  0.
489  4.88  0.  0.
490  4.89  0.  0.
491  4.90  0.  0.
492  4.91  0.  0.
493  4.92  0.  0.
494  4.93  0.  0.
495  4.94  0.  0.
496  4.95  0.  0.
497  4.96  0.  0.
498  4.97  0.  0.
499  4.98  0.  0.
500  4.99  0.  0.
501  5.00  0.  0.
502  5.01  0.  0.
503  5.02  0.  0.
504  5.03  0.  0.
505  5.04  0.  0.
506  5.05  0.  0.
507  5.06  0.  0.
508  5.07  0.  0.
509  5.08  0.  0.
510  5.09  0.  0.
511  5.10  0.  0.
512  5.11  0.  0.
513  5.12  0.  0.
514  5.13  0.  0.
515  5.14  0.  0.
516  5.15  0.  0.
517  5.16  0.  0.
518  5.17  0.  0.
519  5.18  0.  0.
520  5.19  0.  0.
521  5.20  0.  0.
522  5.21  0.  0.
523  5.22  0.  0.
524  5.23  0.  0.
525  5.24  0.  0.
526  5.25  0.  0.
527  5.26  0.  0.
528  5.27  0.  0.
529  5.28  0.  0.
530  5.29  0.  0.
531  5.30  0.  0.
532  5.31  0.  0.
533  5.32  0.  0.
534  5.33  0.  0.
535  5.34  0.  0.
536  5.35  0.  0.
537  5.36  0.  0.
538  5.37  0.  0.
539  5.38  0.  0.
540  5.39  0.  0.
541  5.40  0.  0.
542  5.41  0.  0.
543  5.42  0.  0.
544  5.43  0.  0.
545  5.44  0.  0.
546  5.45  0.  0.
547  5.46  0.  0.
548  5.47  0.  0.
549  5.48  0.  0.
550  5.49  0.  0.
551  5.50  0.  0.
552  5.51  0.  0.
553  5.52  0.  0.
554  5.53  0.  0.
555  5.54  0.  0.
556  5.55  0.  0.
557  5.56  0.  0.
558  5.57  0.  0.
559  5.58  0.  0.
560  5.59  0.  0.
561  5.60  0.  0.
562  5.61  0.  0.
563  5.62  0.  0.
564  5.63  0.  0.
565  5.64  0.  0.
566  5.65  0.  0.
567  5.66  0.  0.
568  5.67  0.  0.
569  5.68  0.  0.
570  5.69  0.  0.
571  5.70  0.  0.
572  5.71  0.  0.
573  5.72  0.  0.
574  5.73  0.  0.
575  5.74  0.  0.
576  5.75  0.  0.
577  5.76  0.  0.
578  5.77  0.  0.
579  5.78  0.  0.
580  5.79  0.  0.
581  5.80  0.  0.
582  5.81  0.  0.
583  5.82  0.  0.
584  5.83  0.  0.
585  5.84  0.  0.
586  5.85  0.  0.
587  5.86  0.  0.
588  5.87  0.  0.
589  5.88  0.  0.
590  5.89  0.  0.
591  5.90  0.  0.
592  5.91  0.  0.
593  5.92  0.  0.
594  5.93  0.  0.
595  5.94  0.  0.
596  5.95  0.  0.
597  5.96  0.  0.
598  5.97  0.  0.
599  5.98  0.  0.
600  5.99  0.  0.
1                         6.0569681450057E+00  2.9909682610375E-01
1  0.0000000000000E+00  2.3320030489993E-09 -1.6370433432444E-08
2  1.0000000000000E-02  1.0298120608673E-03 -8.5244141877813E-04
3  2.0000000000000E-02  4.1140381375320E-03 -3.3879476275584E-03
4  3.0000000000000E-02  9.2371188623582E-03 -7.5415386863375E-03
5  4.0000000000000E-02  1.6373357077152E-02 -1.3206485702054E-02
6  5.0000000000000E-02  2.5487265714408E-02 -2.0236633688695E-02
7  6.0000000000000E-02  3.6534045327776E-02 -2.8449586950829E-02
8  7.0000000000000E-02  4.9460181994854E-02 -3.7630691943719E-02
9  8.0000000000000E-02  6.4204153983401E-02 -4.7537736192746E-02
10  9.0000000000000E-02  8.0697233470342E-02 -5.7906267086544E-02
11  1.0000000000000E-01  9.8864367773708E-02 -6.8455421485052E-02
12  1.1000000000000E-01  1.1862512303741E-01 -7.8894146361405E-02
13  1.2000000000000E-01  1.3989467212826E-01 -8.8927682339832E-02
14  1.3000000000000E-01  1.6258480768819E-01 -9.8264176171209E-02
15  1.4000000000000E-01  1.8660496084902E-01 -1.0662128502268E-01
16  1.5000000000000E-01  2.1186320607228E-01 -1.1373263501934E-01
17  1.6000000000000E-01  2.3826723292433E-01 -1.1935399877928E-01
18  1.7000000000000E-01  2.6572526633177E-01 -1.2326906169439E-01
19  1.8000000000000E-01  2.9414691797085E-01 -1.2529465433718E-01
20  1.9000000000000E-01  3.2344395290603E-01 -1.2528533848134E-01
21  2.0000000000000E-01  3.5353095738018E-01 -1.2313724661992E-01
22  2.1000000000000E-01  3.8432589573738E-01 -1.1879108931897E-01
23  2.2000000000000E-01  4.1575054678928E-01 -1.1223426098024E-01
24  2.3000000000000E-01  4.4773081247181E-01 -1.0350199229550E-01
25  2.4000000000000E-01  4.8019689433229E-01 -9.2677516516397E-02
26  2.5000000000000E-01  5.1308333618369E-01 -7.9891236274863E-02
27  2.6000000000000E-01  5.4632893410869E-01 -6.5318897689324E-02
28  2.7000000000000E-01  5.7987651783452E-01 -4.9178798491791E-02
29  2.8000000000000E-01  6.1367261027392E-01 -3.1728076518431E-02
30  2.9000000000000E-01  6.4766697468150E-01 -1.3258143735082E-02
31  3.0000000000000E-01  6.8181206135556E-01  5.9106513543689E-03
32  3.1000000000000E-01  7.1606236807133E-01  2.5435033898688E-02
33  3.2000000000000E-01  7.5037373041609E-01  4.4955372133265E-02
34  3.3000000000000E-01  7.8470255986808E-01  6.4102680490352E-02
35  3.4000000000000E-01  8.1900504878286E-01  8.2505920987766E-02
36  3.5000000000000E-01  8.5323636239421E-01  9.9799460257426E-02
37  3.6000000000000E-01  8.8734983847799E-01  1.1563053508635E-01
38  3.7000000000000E-01  9.2129621545326E-01  1.2966657771399E-01
39  3.8000000000000E-01  9.5502290939726E-01  1.4160225341737E-01
40  3.9000000000000E-01  9.8847335973239E-01  1.5116606711579E-01
41  4.0000000000000E-01  1.0215864622119E+00  1.5812640278449E-01
42  4.1000000000000E-01  1.0542961063063E+00  1.6229686926634E-01
43  4.2000000000000E-01  1.0865308321984E+00  1.6354083844545E-01
44  4.3000000000000E-01  1.1182136203665E+00  1.6177507647841E-01
45  4.4000000000000E-01  1.1492618242078E+00  1.5697238559989E-01
46  4.5000000000000E-01  1.1795872533830E+00  1.4916319262330E-01
47  4.6000000000000E-01  1.2090964125868E+00  1.3843604029469E-01
48  4.7000000000000E-01  1.2376908973360E+00  1.2493695875516E-01
49  4.8000000000000E-01  1.2652679451668E+00  1.0886771612089E-01
50  4.9000000000000E-01  1.2917211374145E+00  9.0482969184132E-02
51  5.0000000000000E-01  1.3169412435684E+00  7.0086357046815E-02
52  5.1000000000000E-01  1.3408171971200E+00  4.8025601695340E-02
53  5.2000000000000E-01  1.3632371889114E+00  2.4686699690375E-02
54  5.3000000000000E-01  1.3840898613052E+00  4.8730787894792E-04
55  5.4000000000000E-01  1.4032655840870E+00 -2.4130557043958E-02
56  5.5000000000000E-01  1.4206577909357E+00 -4.8708370536187E-02
57  5.6000000000000E-01  1.4361643535920E+00 -7.2779356892097E-02
58  5.7000000000000E-01  1.4496889695616E+00 -9.5876994172485E-02
59  5.8000000000000E-01  1.4611425383452E+00 -1.1754360433578E-01
60  5.9000000000000E-01  1.4704445008007E+00 -1.3733886202522E-01
61  6.0000000000000E-01  1.4775241163414E+00 -1.5484805517736E-01
62  6.1000000000000E-01  1.4823216532549E+00 -1.6968993357776E-01
63  6.2000000000000E-01  1.4847894684883E+00 -1.8152398767871E-01
64  6.3000000000000E-01  1.4848929547709E+00 -1.9005700932731E-01
65  6.4000000000000E-01  1.4826113349207E+00 -1.9504879838240E-01
66  6.5000000000000E-01  1.4779382855586E+00 -1.9631689432166E-01
67  6.6000000000000E-01  1.4708823752160E+00 -1.9374022959233E-01
68  6.7000000000000E-01  1.4614673048970E+00 -1.8726162132748E-01
69  6.8000000000000E-01  1.4497319425126E+00 -1.7688903977388E-01
70  6.9000000000000E-01  1.4357301461655E+00 -1.6269561495982E-01
71  7.0000000000000E-01  1.4195303749754E+00 -1.4481836733521E-01
72  7.1000000000000E-01  1.4012150899223E+00 -1.2345567289079E-01
73  7.2000000000000E-01  1.3808799509831E+00 -9.8863498130374E-02
74  7.3000000000000E-01  1.3586328205705E+00 -7.1350464754771E-02
75  7.4000000000000E-01  1.3345925868816E+00 -4.1271827536282E-02
76  7.5000000000000E-01  1.3088878241608E+00 -9.0224711576263E-03
77  7.6000000000000E-01  1.2816553100067E+00  2.4970947691827E-02
78  7.7000000000000E-01  1.2530384226506E+00  6.0258568338542E-02
79  7.8000000000000E-01  1.2231854435388E+00  9.6376443880001E-02
80  7.9000000000000E-01  1.1922477925253E+00  1.3285603542481E-01
81  8.0000000000000E-01  1.1603782244738E+00  1.6923389989062E-01
82  8.1000000000000E-01  1.1277290170507E+00  2.0506138215798E-01
83  8.2000000000000E-01  1.0944501799376E+00  2.3991411966647E-01
84  8.3000000000000E-01  1.0606877155931E+00  2.7340116848599E-01
85  8.4000000000000E-01  1.0265819610414E+00  3.0517356452170E-01
86  8.5000000000000E-01  9.9226603896731E-01  3.3493214177130E-01
87  8.6000000000000E-01  9.5786444467496E-01  3.6243444133055E-01
88  8.7000000000000E-01  9.2349179324220E-01  3.8750055995259E-01
89  8.8000000000000E-01  8.8925174851645E-01  4.1001780515811E-01
90  8.9000000000000E-01  8.5523615249311E-01  4.2994404485621E-01
91  9.0000000000000E-01  8.2152437015068E-01  4.4730966280196E-01
92  9.1000000000000E-01  7.8818286104882E-01  4.6221805657177E-01
93  9.2000000000000E-01  7.5526498499246E-01  4.7484464162356E-01
94  9.3000000000000E-01  7.2281104490136E-01  4.8543435293686E-01
95  9.4000000000000E-01  6.9084856577370E-01  4.9429766418377E-01
96  9.5000000000000E-01  6.5939280437341E-01  5.0180517284171E-01
97  9.6000000000000E-01  6.2844748008222E-01  5.0838082758410E-01
98  9.7000000000000E-01  5.9800571331442E-01  5.1449390116435E-01
99  9.8000000000000E-01  5.6805115407231E-01  5.2064983732093E-01
100  9.9000000000000E-01  5.3855927969178E-01  5.2738012350502E-01
101  1.0000000000000E+00  5.0949883765817E-01  5.3523136201044E-01
102  1.0100000000000E+00  4.8083340661939E-01  5.4475372998264E-01
103  1.0200000000000E+00  4.5252304643904E-01  5.5648903343393E-01
104  1.0300000000000E+00  4.2452600635999E-01  5.7095857150938E-01
105  1.0400000000000E+00  3.9680045912041E-01  5.8865103461199E-01
106  1.0500000000000E+00  3.6930622820371E-01  6.1001066343668E-01
107  1.0600000000000E+00  3.4200647532466E-01  6.3542589540092E-01
108  1.0700000000000E+00  3.1486931575534E-01  6.6521872038244E-01
109  1.0800000000000E+00  2.8786933017324E-01  6.9963495911845E-01
110  1.0900000000000E+00  2.6098894334073E-01  7.3883566527379E-01
111  1.1000000000000E+00  2.3421964208710E-01  7.8288983613385E-01
112  1.1100000000000E+00  2.0756300769966E-01  8.3176859755370E-01
113  1.1200000000000E+00  1.8103154092055E-01  8.8534100630146E-01
114  1.1300000000000E+00  1.5464926120411E-01  9.4337158788657E-01
115  1.1400000000000E+00  1.2845206568758E-01  1.0055197005269E+00
116  1.1500000000000E+00  1.0248783736544E-01  1.0713407867906E+00
117  1.1600000000000E+00  7.6816296201211E-02  1.1402895438517E+00
118  1.1700000000000E+00  5.1508591244015E-02  1.2117250120346E+00
119  1.1800000000000E+00  2.6646636222332E-02  1.2849175494963E+00
120  1.1900000000000E+00  2.3221954212440E-03  1.3590576294990E+00
121  1.2000000000000E+00 -2.1364269074488E-02  1.4332663656440E+00
122  1.2100000000000E+00 -4.4304973626980E-02  1.5066076407622E+00
123  1.2200000000000E+00 -6.6386393772197E-02  1.5781016867428E+00
124  1.2300000000000E+00 -8.7491026858419E-02  1.6467399361932E+00
125  1.2400000000000E+00 -1.0749931080704E-01  1.7115009426718E+00
126  1.2500000000000E+00 -1.2629167034474E-01  1.7713671444545E+00
127  1.2600000000000E+00 -1.4375065962525E-01  1.8253422278960E+00
128  1.2700000000000E+00 -1.5976316814219E-01  1.8724688302832E+00
129  1.2800000000000E+00 -1.7422265526222E-01  1.9118463088817E+00
130  1.2900000000000E+00 -1.8703137758255E-01  1.9426482926511E+00
131  1.3000000000000E+00 -1.9810257261658E-01  1.9641397257044E+00
132  1.3100000000000E+00 -2.0736256202674E-01  1.9756931069340E+00
133  1.3200000000000E+00 -2.1475273772026E-01  1.9768036281024E+00
134  1.3300000000000E+00 -2.2023139455637E-01  1.9671029127837E+00
135  1.3400000000000E+00 -2.2377537414293E-01  1.9463710605538E+00
136  1.3500000000000E+00 -2.2538148515753E-01  1.9145467043142E+00
137  1.3600000000000E+00 -2.2506766675017E-01  1.8717347931570E+00
138  1.3700000000000E+00 -2.2287386280111E-01  1.8182118182424E+00
139  1.3800000000000E+00 -2.1886257603635E-01  1.7544282042098E+00
140  1.3900000000000E+00 -2.1311907215629E-01  1.6810075930842E+00
141  1.4000000000000E+00 -2.0575120512786E-01  1.5987427508871E+00
142  1.4100000000000E+00 -1.9688883553056E-01  1.5085878285803E+00
143  1.4200000000000E+00 -1.8668281424260E-01  1.4116467079072E+00
144  1.4300000000000E+00 -1.7530350370369E-01  1.3091571585183E+00
145  1.4400000000000E+00 -1.6293880840961E-01  1.2024705248336E+00
146  1.4500000000000E+00 -1.4979168507313E-01  1.0930266486971E+00
147  1.4600000000000E+00 -1.3607710096712E-01  9.8232371664552E-01
148  1.4700000000000E+00 -1.2201840620336E-01  8.7188269747145E-01
149  1.4800000000000E+00 -1.0784308144436E-01  7.6320599585791E-01