Eu    ONCVPSP-4.0.1  r_core=   2.01108   1.60216   1.90567   1.60216
63.0000     17.0000      241101    zatom,zion,pspd
8      11   3     4   600     0    pspcod,pspxc,lmax,lloc,mmax,r2well
5.99000000  4.00000000  0.00000000    rchrg fchrg qchrg
2     2     2     2     0    nproj
1     1           extension_switch
0                         6.7714221183898E+00  5.1115065812344E-01
1  0.0000000000000E+00  8.2341522489315E-11 -3.4790211683733E-10
2  1.0000000000000E-02  4.0683041805899E-02 -3.5375297522504E-03
3  2.0000000000000E-02  8.1345776639709E-02 -7.1182156329312E-03
4  3.0000000000000E-02  1.2196771849471E-01 -1.0784466257632E-02
5  4.0000000000000E-02  1.6252802545069E-01 -1.4577203723327E-02
6  5.0000000000000E-02  2.0300532708559E-01 -1.8535141527526E-02
7  6.0000000000000E-02  2.4337755827034E-01 -2.2694087652716E-02
8  7.0000000000000E-02  2.8362180137715E-01 -2.7086280792411E-02
9  8.0000000000000E-02  3.2371413884929E-01 -3.1739767347144E-02
10  9.0000000000000E-02  3.6362951797859E-01 -3.6677826390356E-02
11  1.0000000000000E-01  4.0334162961774E-01 -4.1918449299608E-02
12  1.1000000000000E-01  4.4282280241734E-01 -4.7473880172719E-02
13  1.2000000000000E-01  4.8204391402554E-01 -5.3350222507549E-02
14  1.3000000000000E-01  5.2097432052144E-01 -5.9547116923977E-02
15  1.4000000000000E-01  5.5958180517379E-01 -6.6057493954849E-02
16  1.5000000000000E-01  5.9783254742654E-01 -7.2867405136193E-02
17  1.6000000000000E-01  6.3569111281285E-01 -7.9955934794644E-02
18  1.7000000000000E-01  6.7312046429253E-01 -8.7295194069257E-02
19  1.8000000000000E-01  7.1008199529568E-01 -9.4850397825274E-02
20  1.9000000000000E-01  7.4653558453979E-01 -1.0258002422744E-01
21  2.0000000000000E-01  7.8243967247098E-01 -1.1043605584935E-01
22  2.1000000000000E-01  8.1775135896413E-01 -1.1836430031201E-01
23  2.2000000000000E-01  8.5242652170388E-01 -1.2630478757893E-01
24  2.3000000000000E-01  8.8641995446056E-01 -1.3419224019458E-01
25  2.4000000000000E-01  9.1968552427414E-01 -1.4195661194825E-01
26  2.5000000000000E-01  9.5217634636744E-01 -1.4952368968279E-01
27  2.6000000000000E-01  9.8384497542865E-01 -1.5681575225692E-01
28  2.7000000000000E-01  1.0146436117346E+00 -1.6375228001802E-01
29  2.8000000000000E-01  1.0445243204321E+00 -1.7025070755592E-01
30  2.9000000000000E-01  1.0734392621556E+00 -1.7622721199427E-01
31  3.0000000000000E-01  1.1013409330388E+00 -1.8159752864027E-01
32  3.1000000000000E-01  1.1281824120739E+00 -1.8627778546075E-01
33  3.2000000000000E-01  1.1539176136887E+00 -1.9018534758618E-01
34  3.3000000000000E-01  1.1785015433487E+00 -1.9323966286962E-01
35  3.4000000000000E-01  1.2018905539482E+00 -1.9536309944397E-01
36  3.5000000000000E-01  1.2240426007332E+00 -1.9648176623370E-01
37  3.6000000000000E-01  1.2449174924999E+00 -1.9652630748286E-01
38  3.7000000000000E-01  1.2644771368332E+00 -1.9543266256279E-01
39  3.8000000000000E-01  1.2826857771955E+00 -1.9314278261680E-01
40  3.9000000000000E-01  1.2995102197375E+00 -1.8960529598380E-01
41  4.0000000000000E-01  1.3149200477908E+00 -1.8477611481503E-01
42  4.1000000000000E-01  1.3288878221056E+00 -1.7861897585378E-01
43  4.2000000000000E-01  1.3413892650200E+00 -1.7110590898081E-01
44  4.3000000000000E-01  1.3524034268897E+00 -1.6221762783459E-01
45  4.4000000000000E-01  1.3619128332640E+00 -1.5194383758614E-01
46  4.5000000000000E-01  1.3699036114652E+00 -1.4028345577737E-01
47  4.6000000000000E-01  1.3763655954158E+00 -1.2724474301110E-01
48  4.7000000000000E-01  1.3812924077509E+00 -1.1284534120082E-01
49  4.8000000000000E-01  1.3846815184639E+00 -9.7112218040278E-02
50  4.9000000000000E-01  1.3865342795414E+00 -8.0081517327953E-02
51  5.0000000000000E-01  1.3868559352648E+00 -6.1798315767507E-02
52  5.1000000000000E-01  1.3856556080771E+00 -4.2316287855207E-02
53  5.2000000000000E-01  1.3829462601344E+00 -2.1697281446183E-02
54  5.3000000000000E-01  1.3787446308827E+00 -1.0807553846259E-05
55  5.4000000000000E-01  1.3730711512193E+00  2.2666551127930E-02
56  5.5000000000000E-01  1.3659498350079E+00  4.6251807595255E-02
57  5.6000000000000E-01  1.3574081489215E+00  7.0656307563854E-02
58  5.7000000000000E-01  1.3474768617797E+00  9.5786529134540E-02
59  5.8000000000000E-01  1.3361898747316E+00  1.2154493734581E-01
60  5.9000000000000E-01  1.3235840338014E+00  1.4783088521546E-01
61  6.0000000000000E-01  1.3096989264678E+00  1.7454155230286E-01
62  6.1000000000000E-01  1.2945766640870E+00  2.0157291134380E-01
63  6.2000000000000E-01  1.2782616520826E+00  2.2882071312236E-01
64  6.3000000000000E-01  1.2608003499300E+00  2.5618147945596E-01
65  6.4000000000000E-01  1.2422410230375E+00  2.8355349398394E-01
66  6.5000000000000E-01  1.2226334886868E+00  3.1083778036950E-01
67  6.6000000000000E-01  1.2020288582288E+00  3.3793905755018E-01
68  6.7000000000000E-01  1.1804792777485E+00  3.6476666180642E-01
69  6.8000000000000E-01  1.1580376694027E+00  3.9123542565688E-01
70  6.9000000000000E-01  1.1347574756049E+00  4.1726650393459E-01
71  7.0000000000000E-01  1.1106924081846E+00  4.4278813784509E-01
72  7.1000000000000E-01  1.0858962045713E+00  4.6773634835206E-01
73  7.2000000000000E-01  1.0604223929696E+00  4.9205555087465E-01
74  7.3000000000000E-01  1.0343240683759E+00  5.1569908400518E-01
75  7.4000000000000E-01  1.0076536811651E+00  5.3862964576008E-01
76  7.5000000000000E-01  9.8046283982894E-01  5.6081963175419E-01
77  7.6000000000000E-01  9.5280212929465E-01  5.8225137062727E-01
78  7.7000000000000E-01  9.2472094607768E-01  6.0291725304538E-01
79  7.8000000000000E-01  8.9626735134703E-01  6.2281975163624E-01
80  7.9000000000000E-01  8.6748794278923E-01  6.4197133028757E-01
81  8.0000000000000E-01  8.3842774596303E-01  6.6039424232950E-01
82  8.1000000000000E-01  8.0913012563676E-01  6.7812021822486E-01
83  8.2000000000000E-01  7.7963671739821E-01  6.9519004449399E-01
84  8.3000000000000E-01  7.4998737962474E-01  7.1165303669142E-01
85  8.4000000000000E-01  7.2022016570157E-01  7.2756641032049E-01
86  8.5000000000000E-01  6.9037131618036E-01  7.4299455460638E-01
87  8.6000000000000E-01  6.6047527038054E-01  7.5800821503971E-01
88  8.7000000000000E-01  6.3056469675475E-01  7.7268359153909E-01
89  8.8000000000000E-01  6.0067054116803E-01  7.8710135995641E-01
90  8.9000000000000E-01  5.7082209208024E-01  8.0134562545109E-01
91  9.0000000000000E-01  5.4104706147462E-01  8.1550281698355E-01
92  9.1000000000000E-01  5.1137168024175E-01  8.2966053281781E-01
93  9.2000000000000E-01  4.8182080661104E-01  8.4390634747042E-01
94  9.3000000000000E-01  4.5241804611982E-01  8.5832659099607E-01
95  9.4000000000000E-01  4.2318588152498E-01  8.7300511185448E-01
96  9.5000000000000E-01  3.9414581099370E-01  8.8802203485781E-01
97  9.6000000000000E-01  3.6531849285865E-01  9.0345252584963E-01
98  9.7000000000000E-01  3.3672389518831E-01  9.1936557481988E-01
99  9.8000000000000E-01  3.0838144840497E-01  9.3582280911244E-01
100  9.9000000000000E-01  2.8031019918075E-01  9.5287734823914E-01
101  1.0000000000000E+00  2.5252896385436E-01  9.7057271157789E-01
102  1.0100000000000E+00  2.2505647963808E-01  9.8894178991005E-01
103  1.0200000000000E+00  1.9791155192380E-01  1.0080058913461E+00
104  1.0300000000000E+00  1.7111319604722E-01  1.0277738717089E+00
105  1.0400000000000E+00  1.4468077193052E-01  1.0482413588963E+00
106  1.0500000000000E+00  1.1863411009222E-01  1.0693900801330E+00
107  1.0600000000000E+00  9.2993627588970E-02  1.0911873003673E+00
108  1.0700000000000E+00  6.7780432534688E-02  1.1135853793561E+00
109  1.0800000000000E+00  4.3016415926728E-02  1.1365214542486E+00
110  1.0900000000000E+00  1.8724329595026E-02  1.1599172537092E+00
111  1.1000000000000E+00 -5.0721508231672E-03  1.1836790488325E+00
112  1.1100000000000E+00 -2.8348378894684E-02  1.2076977453099E+00
113  1.1200000000000E+00 -5.1078707315696E-02  1.2318491204964E+00
114  1.1300000000000E+00 -7.3236475597971E-02  1.2559942082309E+00
115  1.1400000000000E+00 -9.4794016285959E-02  1.2799798334570E+00
116  1.1500000000000E+00 -1.1572268040139E-01  1.3036392979048E+00
117  1.1600000000000E+00 -1.3599288274311E-01  1.3267932173124E+00
118  1.1700000000000E+00 -1.5557416760465E-01  1.3492505098945E+00
119  1.1800000000000E+00 -1.7443529540982E-01  1.3708095350035E+00
120  1.1900000000000E+00 -1.9254435070700E-01  1.3912593801732E+00
121  1.2000000000000E+00 -2.0986887190314E-01  1.4103812939783E+00
122  1.2100000000000E+00 -2.2637600305817E-01  1.4279502613807E+00
123  1.2200000000000E+00 -2.4203266799618E-01  1.4437367174562E+00
124  1.2300000000000E+00 -2.5680576691896E-01  1.4575083945882E+00
125  1.2400000000000E+00 -2.7066239562744E-01  1.4690322973730E+00
126  1.2500000000000E+00 -2.8357008736244E-01  1.4780767985765E+00
127  1.2600000000000E+00 -2.9549707716520E-01  1.4844138485119E+00
128  1.2700000000000E+00 -3.0641258852465E-01  1.4878212891401E+00
129  1.2800000000000E+00 -3.1628714191784E-01  1.4880852630156E+00
130  1.2900000000000E+00 -3.2509288465740E-01  1.4850027058837E+00
131  1.3000000000000E+00 -3.3280394122902E-01  1.4783839102602E+00
132  1.3100000000000E+00 -3.3939678302627E-01  1.4680551456528E+00
133  1.3200000000000E+00 -3.4485061606446E-01  1.4538613192039E+00
134  1.3300000000000E+00 -3.4914778487342E-01  1.4356686584097E+00
135  1.3400000000000E+00 -3.5227419031978E-01  1.4133673951559E+00
136  1.3500000000000E+00 -3.5421971859159E-01  1.3868744275978E+00
137  1.3600000000000E+00 -3.5497867798102E-01  1.3561359333575E+00
138  1.3700000000000E+00 -3.5455023941627E-01  1.3211299040713E+00
139  1.3800000000000E+00 -3.5293887591462E-01  1.2818685674647E+00
140  1.3900000000000E+00 -3.5015479524826E-01  1.2384006588387E+00
141  1.4000000000000E+00 -3.4621435912217E-01  1.1908134990512E+00
142  1.4100000000000E+00 -3.4114048105569E-01  1.1392348307801E+00
143  1.4200000000000E+00 -3.3496299391626E-01  1.0838343589411E+00
144  1.4300000000000E+00 -3.2771897668337E-01  1.0248249346605E+00
145  1.4400000000000E+00 -3.1945302850007E-01  9.6246331505341E-01
146  1.4500000000000E+00 -3.1021747639115E-01  8.9705042319733E-01
147  1.4600000000000E+00 -3.0007250119926E-01  8.2893102416141E-01
148  1.4700000000000E+00 -2.8908616426477E-01  7.5849272351552E-01
149  1.4800000000000E+00 -2.7733431518887E-01  6.8616418458507E-01
150  1.4900000000000E+00 -2.6490035862572E-01  6.1241244960622E-01
151  1.5000000000000E+00 -2.5187485545463E-01  5.3773923790369E-01
152  1.5100000000000E+00 -2.3835493087234E-01  4.6267608118650E-01
153  1.5200000000000E+00 -2.2444345889866E-01  3.8777814193999E-01
154  1.5300000000000E+00 -2.1024798952284E-01  3.1361654575942E-01
155  1.5400000000000E+00 -1.9587938116388E-01  2.4076904199740E-01
156  1.5500000000000E+00 -1.8145009732749E-01  1.6980878951975E-01
157  1.5600000000000E+00 -1.6707212225427E-01  1.0129104539283E-01
158  1.5700000000000E+00 -1.5285444597178E-01  3.5737513976363E-02
159  1.5800000000000E+00 -1.3890006287867E-01 -2.6381918915656E-02
160  1.5900000000000E+00 -1.2530242587820E-01 -8.4670343708593E-02
161  1.6000000000000E+00 -1.1214136074142E-01 -1.3882772135371E-01
162  1.6100000000000E+00 -9.9478294214848E-02 -1.8867834605974E-01
163  1.6200000000000E+00 -8.7359093694440E-02 -2.3414498771270E-01
164  1.6300000000000E+00 -7.5822588812602E-02 -2.7518646740116E-01
165  1.6400000000000E+00 -6.4902580986670E-02 -3.1178292917126E-01
166  1.6500000000000E+00 -5.4627523944403E-02 -3.4393764979503E-01
167  1.6600000000000E+00 -4.5020469195430E-02 -3.7167707209350E-01
168  1.6700000000000E+00 -3.6099012050108E-02 -3.9505094010727E-01
169  1.6800000000000E+00 -2.7875279633063E-02 -4.1413224012119E-01
170  1.6900000000000E+00 -2.0355961345244E-02 -4.2901694618755E-01
171  1.7000000000000E+00 -1.3542381241661E-02 -4.3982357403232E-01
172  1.7100000000000E+00 -7.4306118852647E-03 -4.4669254557379E-01
173  1.7200000000000E+00 -2.0116298324964E-03 -4.4978536190573E-01
174  1.7300000000000E+00  2.7284904401667E-03 -4.4928360316361E-01
175  1.7400000000000E+00  6.8083423776912E-03 -4.4538774156621E-01
176  1.7500000000000E+00  1.0250917507307E-02 -4.3831579347531E-01
177  1.7600000000000E+00  1.3083300721900E-02 -4.2830181204686E-01
178  1.7700000000000E+00  1.5336333241928E-02 -4.1559423260267E-01
179  1.7800000000000E+00  1.7044246155858E-02 -4.0045408453288E-01
180  1.7900000000000E+00  1.8244267452754E-02 -3.8315308317060E-01
181  1.8000000000000E+00  1.8976205848370E-02 -3.6397161710962E-01
182  1.8100000000000E+00  1.9282014878046E-02 -3.4319664716532E-01
183  1.8200000000000E+00  1.9205340948671E-02 -3.2111953423922E-01
184  1.8300000000000E+00  1.8791059204345E-02 -2.9803381411228E-01
185  1.8400000000000E+00  1.8084801178555E-02 -2.7423293773358E-01
186  1.8500000000000E+00  1.7132478317932E-02 -2.5000799612536E-01
187  1.8600000000000E+00  1.5979805488897E-02 -2.2564544911463E-01
188  1.8700000000000E+00  1.4671828622706E-02 -2.0142487734370E-01
189  1.8800000000000E+00  1.3252462493654E-02 -1.7761678383867E-01
190  1.8900000000000E+00  1.1764021873239E-02 -1.5448038718126E-01
191  1.9000000000000E+00  1.0246844383135E-02 -1.3226176945013E-01
192  1.9100000000000E+00  8.7387332958252E-03 -1.1119140920376E-01
193  1.9200000000000E+00  7.2728840083845E-03 -9.1475985849118E-02
194  1.9300000000000E+00  5.8793544542349E-03 -7.3303395170224E-02
195  1.9400000000000E+00  4.5879758272081E-03 -5.6853372062618E-02
196  1.9500000000000E+00  3.4243679448568E-03 -4.2282577161363E-02
197  1.9600000000000E+00  2.4099305883300E-03 -2.9724249605604E-02
198  1.9700000000000E+00  1.5615690874751E-03 -1.9286946436851E-02
199  1.9800000000000E+00  8.9178534110720E-04 -1.1057122855092E-02
200  1.9900000000000E+00  4.0614917921481E-04 -5.0676343528225E-03
201  2.0000000000000E+00  1.1219497771795E-04 -1.4126655384741E-03
202  2.0100000000000E+00  3.8375276179582E-06 -4.8884264145969E-05
203  2.0200000000000E+00 -3.4971609835458E-06  4.4708181974975E-05
204  2.0300000000000E+00  1.8152559651872E-06 -2.3012091271574E-05
205  2.04 -0.  0.
206  2.05 -0.  0.
207  2.06  0.  0.
208  2.07  0.  0.
209  2.08  0.  0.
210  2.09  0.  0.
211  2.10  0.  0.
212  2.11  0.  0.
213  2.12  0.  0.
214  2.13  0.  0.
215  2.14  0.  0.
216  2.15  0.  0.
217  2.16  0.  0.
218  2.17  0.  0.
219  2.18  0.  0.
220  2.19  0.  0.
221  2.20  0.  0.
222  2.21  0.  0.
223  2.22  0.  0.
224  2.23  0.  0.
225  2.24  0.  0.
226  2.25  0.  0.
227  2.26  0.  0.
228  2.27  0.  0.
229  2.28  0.  0.
230  2.29  0.  0.
231  2.30  0.  0.
232  2.31  0.  0.
233  2.32  0.  0.
234  2.33  0.  0.
235  2.34  0.  0.
236  2.35  0.  0.
237  2.36  0.  0.
238  2.37  0.  0.
239  2.38  0.  0.
240  2.39  0.  0.
241  2.40  0.  0.
242  2.41  0.  0.
243  2.42  0.  0.
244  2.43  0.  0.
245  2.44  0.  0.
246  2.45  0.  0.
247  2.46  0.  0.
248  2.47  0.  0.
249  2.48  0.  0.
250  2.49  0.  0.
251  2.50  0.  0.
252  2.51  0.  0.
253  2.52  0.  0.
254  2.53  0.  0.
255  2.54  0.  0.
256  2.55  0.  0.
257  2.56  0.  0.
258  2.57  0.  0.
259  2.58  0.  0.
260  2.59  0.  0.
261  2.60  0.  0.
262  2.61  0.  0.
263  2.62  0.  0.
264  2.63  0.  0.
265  2.64  0.  0.
266  2.65  0.  0.
267  2.66  0.  0.
268  2.67  0.  0.
269  2.68  0.  0.
270  2.69  0.  0.
271  2.70  0.  0.
272  2.71  0.  0.
273  2.72  0.  0.
274  2.73  0.  0.
275  2.74  0.  0.
276  2.75  0.  0.
277  2.76  0.  0.
278  2.77  0.  0.
279  2.78  0.  0.
280  2.79  0.  0.
281  2.80  0.  0.
282  2.81  0.  0.
283  2.82  0.  0.
284  2.83  0.  0.
285  2.84  0.  0.
286  2.85  0.  0.
287  2.86  0.  0.
288  2.87  0.  0.
289  2.88  0.  0.
290  2.89  0.  0.
291  2.90  0.  0.
292  2.91  0.  0.
293  2.92  0.  0.
294  2.93  0.  0.
295  2.94  0.  0.
296  2.95  0.  0.
297  2.96  0.  0.
298  2.97  0.  0.
299  2.98  0.  0.
300  2.99  0.  0.
301  3.00  0.  0.
302  3.01  0.  0.
303  3.02  0.  0.
304  3.03  0.  0.
305  3.04  0.  0.
306  3.05  0.  0.
307  3.06  0.  0.
308  3.07  0.  0.
309  3.08  0.  0.
310  3.09  0.  0.
311  3.10  0.  0.
312  3.11  0.  0.
313  3.12  0.  0.
314  3.13  0.  0.
315  3.14  0.  0.
316  3.15  0.  0.
317  3.16  0.  0.
318  3.17  0.  0.
319  3.18  0.  0.
320  3.19  0.  0.
321  3.20  0.  0.
322  3.21  0.  0.
323  3.22  0.  0.
324  3.23  0.  0.
325  3.24  0.  0.
326  3.25  0.  0.
327  3.26  0.  0.
328  3.27  0.  0.
329  3.28  0.  0.
330  3.29  0.  0.
331  3.30  0.  0.
332  3.31  0.  0.
333  3.32  0.  0.
334  3.33  0.  0.
335  3.34  0.  0.
336  3.35  0.  0.
337  3.36  0.  0.
338  3.37  0.  0.
339  3.38  0.  0.
340  3.39  0.  0.
341  3.40  0.  0.
342  3.41  0.  0.
343  3.42  0.  0.
344  3.43  0.  0.
345  3.44  0.  0.
346  3.45  0.  0.
347  3.46  0.  0.
348  3.47  0.  0.
349  3.48  0.  0.
350  3.49  0.  0.
351  3.50  0.  0.
352  3.51  0.  0.
353  3.52  0.  0.
354  3.53  0.  0.
355  3.54  0.  0.
356  3.55  0.  0.
357  3.56  0.  0.
358  3.57  0.  0.
359  3.58  0.  0.
360  3.59  0.  0.
361  3.60  0.  0.
362  3.61  0.  0.
363  3.62  0.  0.
364  3.63  0.  0.
365  3.64  0.  0.
366  3.65  0.  0.
367  3.66  0.  0.
368  3.67  0.  0.
369  3.68  0.  0.
370  3.69  0.  0.
371  3.70  0.  0.
372  3.71  0.  0.
373  3.72  0.  0.
374  3.73  0.  0.
375  3.74  0.  0.
376  3.75  0.  0.
377  3.76  0.  0.
378  3.77  0.  0.
379  3.78  0.  0.
380  3.79  0.  0.
381  3.80  0.  0.
382  3.81  0.  0.
383  3.82  0.  0.
384  3.83  0.  0.
385  3.84  0.  0.
386  3.85  0.  0.
387  3.86  0.  0.
388  3.87  0.  0.
389  3.88  0.  0.
390  3.89  0.  0.
391  3.90  0.  0.
392  3.91  0.  0.
393  3.92  0.  0.
394  3.93  0.  0.
395  3.94  0.  0.
396  3.95  0.  0.
397  3.96  0.  0.
398  3.97  0.  0.
399  3.98  0.  0.
400  3.99  0.  0.
401  4.00  0.  0.
402  4.01  0.  0.
403  4.02  0.  0.
404  4.03  0.  0.
405  4.04  0.  0.
406  4.05  0.  0.
407  4.06  0.  0.
408  4.07  0.  0.
409  4.08  0.  0.
410  4.09  0.  0.
411  4.10  0.  0.
412  4.11  0.  0.
413  4.12  0.  0.
414  4.13  0.  0.
415  4.14  0.  0.
416  4.15  0.  0.
417  4.16  0.  0.
418  4.17  0.  0.
419  4.18  0.  0.
420  4.19  0.  0.
421  4.20  0.  0.
422  4.21  0.  0.
423  4.22  0.  0.
424  4.23  0.  0.
425  4.24  0.  0.
426  4.25  0.  0.
427  4.26  0.  0.
428  4.27  0.  0.
429  4.28  0.  0.
430  4.29  0.  0.
431  4.30  0.  0.
432  4.31  0.  0.
433  4.32  0.  0.
434  4.33  0.  0.
435  4.34  0.  0.
436  4.35  0.  0.
437  4.36  0.  0.
438  4.37  0.  0.
439  4.38  0.  0.
440  4.39  0.  0.
441  4.40  0.  0.
442  4.41  0.  0.
443  4.42  0.  0.
444  4.43  0.  0.
445  4.44  0.  0.
446  4.45  0.  0.
447  4.46  0.  0.
448  4.47  0.  0.
449  4.48  0.  0.
450  4.49  0.  0.
451  4.50  0.  0.
452  4.51  0.  0.
453  4.52  0.  0.
454  4.53  0.  0.
455  4.54  0.  0.
456  4.55  0.  0.
457  4.56  0.  0.
458  4.57  0.  0.
459  4.58  0.  0.
460  4.59  0.  0.
461  4.60  0.  0.
462  4.61  0.  0.
463  4.62  0.  0.
464  4.63  0.  0.
465  4.64  0.  0.
466  4.65  0.  0.
467  4.66  0.  0.
468  4.67  0.  0.
469  4.68  0.  0.
470  4.69  0.  0.
471  4.70  0.  0.
472  4.71  0.  0.
473  4.72  0.  0.
474  4.73  0.  0.
475  4.74  0.  0.
476  4.75  0.  0.
477  4.76  0.  0.
478  4.77  0.  0.
479  4.78  0.  0.
480  4.79  0.  0.
481  4.80  0.  0.
482  4.81  0.  0.
483  4.82  0.  0.
484  4.83  0.  0.
485  4.84  0.  0.
486  4.85  0.  0.
487  4.86  0.  0.
488  4.87  0.  0.
489  4.88  0.  0.
490  4.89  0.  0.
491  4.90  0.  0.
492  4.91  0.  0.
493  4.92  0.  0.
494  4.93  0.  0.
495  4.94  0.  0.
496  4.95  0.  0.
497  4.96  0.  0.
498  4.97  0.  0.
499  4.98  0.  0.
500  4.99  0.  0.
501  5.00  0.  0.
502  5.01  0.  0.
503  5.02  0.  0.
504  5.03  0.  0.
505  5.04  0.  0.
506  5.05  0.  0.
507  5.06  0.  0.
508  5.07  0.  0.
509  5.08  0.  0.
510  5.09  0.  0.
511  5.10  0.  0.
512  5.11  0.  0.
513  5.12  0.  0.
514  5.13  0.  0.
515  5.14  0.  0.
516  5.15  0.  0.
517  5.16  0.  0.
518  5.17  0.  0.
519  5.18  0.  0.
520  5.19  0.  0.
521  5.20  0.  0.
522  5.21  0.  0.
523  5.22  0.  0.
524  5.23  0.  0.
525  5.24  0.  0.
526  5.25  0.  0.
527  5.26  0.  0.
528  5.27  0.  0.
529  5.28  0.  0.
530  5.29  0.  0.
531  5.30  0.  0.
532  5.31  0.  0.
533  5.32  0.  0.
534  5.33  0.  0.
535  5.34  0.  0.
536  5.35  0.  0.
537  5.36  0.  0.
538  5.37  0.  0.
539  5.38  0.  0.
540  5.39  0.  0.
541  5.40  0.  0.
542  5.41  0.  0.
543  5.42  0.  0.
544  5.43  0.  0.
545  5.44  0.  0.
546  5.45  0.  0.
547  5.46  0.  0.
548  5.47  0.  0.
549  5.48  0.  0.
550  5.49  0.  0.
551  5.50  0.  0.
552  5.51  0.  0.
553  5.52  0.  0.
554  5.53  0.  0.
555  5.54  0.  0.
556  5.55  0.  0.
557  5.56  0.  0.
558  5.57  0.  0.
559  5.58  0.  0.
560  5.59  0.  0.
561  5.60  0.  0.
562  5.61  0.  0.
563  5.62  0.  0.
564  5.63  0.  0.
565  5.64  0.  0.
566  5.65  0.  0.
567  5.66  0.  0.
568  5.67  0.  0.
569  5.68  0.  0.
570  5.69  0.  0.
571  5.70  0.  0.
572  5.71  0.  0.
573  5.72  0.  0.
574  5.73  0.  0.
575  5.74  0.  0.
576  5.75  0.  0.
577  5.76  0.  0.
578  5.77  0.  0.
579  5.78  0.  0.
580  5.79  0.  0.
581  5.80  0.  0.
582  5.81  0.  0.
583  5.82  0.  0.
584  5.83  0.  0.
585  5.84  0.  0.
586  5.85  0.  0.
587  5.86  0.  0.
588  5.87  0.  0.
589  5.88  0.  0.
590  5.89  0.  0.
591  5.90  0.  0.
592  5.91  0.  0.
593  5.92  0.  0.
594  5.93  0.  0.
595  5.94  0.  0.
596  5.95  0.  0.
597  5.96  0.  0.
598  5.97  0.  0.
599  5.98  0.  0.
600  5.99  0.  0.
1                         4.9782371548474E+00  2.8029707759732E-01
1  0.0000000000000E+00  7.8461684788200E-09 -7.5669109034227E-08
2  1.0000000000000E-02  1.4088478206089E-03 -5.1792971591069E-03
3  2.0000000000000E-02  5.6216402867296E-03 -2.0600511363464E-02
4  3.0000000000000E-02  1.2597364500111E-02 -4.5915926551374E-02
5  4.0000000000000E-02  2.2268461314727E-02 -8.0553690782886E-02
6  5.0000000000000E-02  3.4542002810115E-02 -1.2372917405581E-01
7  6.0000000000000E-02  4.9301308963273E-02 -1.7446056338240E-01
8  7.0000000000000E-02  6.6407972458769E-02 -2.3158839618138E-01
9  8.0000000000000E-02  8.5704252730529E-02 -2.9379865737091E-01
10  9.0000000000000E-02  1.0701579322685E-01 -3.5964899693454E-01
11  1.0000000000000E-01  1.3015460966894E-01 -4.2759756447290E-01
12  1.1000000000000E-01  1.5492229185246E-01 -4.9603390648860E-01
13  1.2000000000000E-01  1.8111335742198E-01 -5.6331133184402E-01
14  1.3000000000000E-01  2.0851869310991E-01 -6.2778012175214E-01
15  1.4000000000000E-01  2.3692901723206E-01 -6.8782094336842E-01
16  1.5000000000000E-01  2.6613829680614E-01 -7.4187782088625E-01
17  1.6000000000000E-01  2.9594705351662E-01 -7.8849002511643E-01
18  1.7000000000000E-01  3.2616549487629E-01 -8.2632226173292E-01
19  1.8000000000000E-01  3.5661641029203E-01 -8.5419256935510E-01
20  1.9000000000000E-01  3.8713777626929E-01 -8.7109738084460E-01
21  2.0000000000000E-01  4.1758502060122E-01 -8.7623325384967E-01
22  2.1000000000000E-01  4.4783290198026E-01 -8.6901483876127E-01
23  2.2000000000000E-01  4.7777696891826E-01 -8.4908872270276E-01
24  2.3000000000000E-01  5.0733457002511E-01 -8.1634286564983E-01
25  2.4000000000000E-01  5.3644539642190E-01 -7.7091142782933E-01
26  2.5000000000000E-01  5.6507154618665E-01 -7.1317487462378E-01
27  2.6000000000000E-01  5.9319711007555E-01 -6.4375533468420E-01
28  2.7000000000000E-01  6.2082728715210E-01 -5.6350727715136E-01
29  2.8000000000000E-01  6.4798704821103E-01 -4.7350366310913E-01
30  2.9000000000000E-01  6.7471937382582E-01 -3.7501781296202E-01
31  3.0000000000000E-01  7.0108310230501E-01 -2.6950131370791E-01
32  3.1000000000000E-01  7.2715043065071E-01 -1.5855836650499E-01
33  3.2000000000000E-01  7.5300411861961E-01 -4.3917044055336E-02
34  3.3000000000000E-01  7.7873445205559E-01  7.2602012175853E-02
35  3.4000000000000E-01  8.0443602667328E-01  1.8911887418213E-01
36  3.5000000000000E-01  8.3020441732321E-01  3.0372896842787E-01
37  3.6000000000000E-01  8.5613280038262E-01  4.1453842663422E-01
38  3.7000000000000E-01  8.8230859823545E-01  5.1969948109422E-01
39  3.8000000000000E-01  9.0881021479953E-01  6.1744523552337E-01
40  3.9000000000000E-01  9.3570392972150E-01  7.0612315130260E-01
41  4.0000000000000E-01  9.6304101621008E-01  7.8422661029334E-01
42  4.1000000000000E-01  9.9085514355885E-01  8.5042394884862E-01
43  4.2000000000000E-01  1.0191601202899E+00  9.0358440262357E-01
44  4.3000000000000E-01  1.0479480276197E+00  9.4280045750197E-01
45  4.4000000000000E-01  1.0771877857229E+00  9.6740616739601E-01
46  4.5000000000000E-01  1.1068241871779E+00  9.7699107365213E-01
47  4.6000000000000E-01  1.1367774231727E+00  9.7140944194997E-01
48  4.7000000000000E-01  1.1669431186941E+00  9.5078461941600E-01
49  4.8000000000000E-01  1.1971928831866E+00  9.1550840558073E-01
50  4.9000000000000E-01  1.2273753732472E+00  8.6623542409553E-01
51  5.0000000000000E-01  1.2573178539860E+00  8.0387257604794E-01
52  5.1000000000000E-01  1.2868282359433E+00  7.2956374851239E-01
53  5.2000000000000E-01  1.3156975550719E+00  6.4467004189536E-01
54  5.3000000000000E-01  1.3437028544778E+00  5.5074586498008E-01
55  5.4000000000000E-01  1.3706104185073E+00  4.4951132572273E-01
56  5.5000000000000E-01  1.3961793025535E+00  3.4282141728473E-01
57  5.6000000000000E-01  1.4201650957623E+00  2.3263256113153E-01
58  5.7000000000000E-01  1.4423238487729E+00  1.2096712107572E-01
59  5.8000000000000E-01  1.4624160948363E+00  9.8765428694231E-03
60  5.9000000000000E-01  1.4802108901958E+00 -9.8596197452934E-02
61  6.0000000000000E-01  1.4954897985418E+00 -2.0245413740760E-01
62  6.1000000000000E-01  1.5080507446964E+00 -2.9978316219402E-01
63  6.2000000000000E-01  1.5177116644485E+00 -3.8878743763091E-01
64  6.3000000000000E-01  1.5243138806183E+00 -4.6782277381701E-01
65  6.4000000000000E-01  1.5277251399349E+00 -5.3542728751000E-01
66  6.5000000000000E-01  1.5278422510779E+00 -5.9034877931440E-01
67  6.6000000000000E-01  1.5245932711734E+00 -6.3156830103681E-01
68  6.7000000000000E-01  1.5179391960128E+00 -6.5831945793639E-01
69  6.8000000000000E-01  1.5078751181361E+00 -6.7010306879997E-01
70  6.9000000000000E-01  1.4944308265375E+00 -6.6669689237398E-01
71  7.0000000000000E-01  1.4776708319136E+00 -6.4816022009990E-01
72  7.1000000000000E-01  1.4576938119178E+00 -6.1483323063244E-01
73  7.2000000000000E-01  1.4346314815876E+00 -5.6733109948038E-01
74  7.3000000000000E-01  1.4086469047948E+00 -5.0653295547233E-01
75  7.4000000000000E-01  1.3799322730116E+00 -4.3356587274597E-01
76  7.5000000000000E-01  1.3487061877013E+00 -3.4978418077434E-01
77  7.6000000000000E-01  1.3152104920351E+00 -2.5674446378042E-01
78  7.7000000000000E-01  1.2797067062227E+00 -1.5617670306043E-01
79  7.8000000000000E-01  1.2424721283615E+00 -4.9952089669079E-02
80  7.9000000000000E-01  1.2037956692054E+00  5.9951900815090E-02
81  8.0000000000000E-01  1.1639734944998E+00  1.7148852637574E-01
82  8.1000000000000E-01  1.1233045524239E+00  2.8258020303115E-01
83  8.2000000000000E-01  1.0820860661351E+00  3.9115762061274E-01
84  8.3000000000000E-01  1.0406090723797E+00  4.9519881951407E-01
85  8.4000000000000E-01  9.9915408658805E-01  5.9276749651051E-01
86  8.5000000000000E-01  9.5798697281229E-01  6.8204981995076E-01
87  8.6000000000000E-01  9.1735509333034E-01  7.6138906039382E-01
88  8.7000000000000E-01  8.7748380778235E-01  8.2931738166674E-01
89  8.8000000000000E-01  8.3857338542066E-01  8.8458418864602E-01
90  8.9000000000000E-01  8.0079638654958E-01  9.2618049088449E-01
91  9.0000000000000E-01  7.6429556064759E-01  9.5335881435909E-01
92  9.1000000000000E-01  7.2918229915834E-01  9.6564827574354E-01
93  9.2000000000000E-01  6.9553567068619E-01  9.6286452318215E-01
94  9.3000000000000E-01  6.6340205552722E-01  9.4511434288297E-01
95  9.4000000000000E-01  6.3279538531174E-01  9.1279483016502E-01
96  9.5000000000000E-01  6.0369798223837E-01  8.6658712502551E-01
97  9.6000000000000E-01  5.7606198115897E-01  8.0744481390274E-01
98  9.7000000000000E-01  5.4981130683710E-01  7.3657719921518E-01
99  9.8000000000000E-01  5.2484416826224E-01  6.5542773453377E-01
100  9.9000000000000E-01  5.0103602215508E-01  5.6564801408958E-01
101  1.0000000000000E+00  4.7824294893435E-01  4.6906778898401E-01
102  1.0100000000000E+00  4.5630537659980E-01  3.6766155741500E-01
103  1.0200000000000E+00  4.3505208137202E-01  2.6351234099717E-01
104  1.0300000000000E+00  4.1430438864829E-01  1.5877331260545E-01
105  1.0400000000000E+00  3.9388049398032E-01  5.5627982140741E-02
106  1.0500000000000E+00  3.7359982143702E-01 -4.3750325601716E-02
107  1.0600000000000E+00  3.5328733592690E-01 -1.3723895272244E-01
108  1.0700000000000E+00  3.3277772683565E-01 -2.2280560129402E-01
109  1.0800000000000E+00  3.1191938268076E-01 -2.9854650324053E-01
110  1.0900000000000E+00  2.9057808033291E-01 -3.6272235999879E-01
111  1.1000000000000E+00  2.6864031767010E-01 -4.1379138574080E-01
112  1.1100000000000E+00  2.4601622515738E-01 -4.5043884084268E-01
113  1.1200000000000E+00  2.2264199973168E-01 -4.7160250686959E-01
114  1.1300000000000E+00  1.9848181328467E-01 -4.7649362868564E-01
115  1.1400000000000E+00  1.7352915789698E-01 -4.6461293272083E-01
116  1.1500000000000E+00  1.4780760050499E-01 -4.3576142055133E-01
117  1.1600000000000E+00  1.2137093077889E-01 -3.9004573294016E-01
118  1.1700000000000E+00  9.4302697328665E-02 -3.2787797849061E-01
119  1.1800000000000E+00  6.6715138867418E-02 -2.4997002251753E-01
120  1.1900000000000E+00  3.8747528244622E-02 -1.5732233208725E-01
121  1.2000000000000E+00  1.0563958324367E-02 -5.1207572507530E-02
122  1.2100000000000E+00 -1.7649390914218E-02  6.6850755057397E-02
123  1.2200000000000E+00 -4.5687454928619E-02  1.9510425564204E-01
124  1.2300000000000E+00 -7.3329898909656E-02  3.3160970115967E-01
125  1.2400000000000E+00 -1.0034507822598E-01  4.7426267566306E-01
126  1.2500000000000E+00 -1.2649427291605E-01  6.2083420782068E-01
127  1.2600000000000E+00 -1.5153611902214E-01  7.6900974161944E-01
128  1.2700000000000E+00 -1.7523115585635E-01  9.1642975638732E-01
129  1.2800000000000E+00 -1.9734640610241E-01  1.0607313201527E+00
130  1.2900000000000E+00 -2.1765990500825E-01  1.1995898464197E+00
131  1.3000000000000E+00 -2.3596509580991E-01  1.3307603236195E+00
132  1.3100000000000E+00 -2.5207501094454E-01  1.4521172988937E+00
133  1.3200000000000E+00 -2.6582616248473E-01  1.5616929229249E+00