Eu    ONCVPSP-4.0.1  r_core=   1.80578   1.60216   1.70093   1.60216
63.0000     17.0000      221106    zatom,zion,pspd
8      11   3     4   600     0    pspcod,pspxc,lmax,lloc,mmax,r2well
5.99000000  0.25000000  0.00000000    rchrg fchrg qchrg
2     2     2     2     0    nproj
1     1           extension_switch
0                         8.5643708881282E+00  5.4995107553676E-01
1  0.0000000000000E+00  1.8394891165840E-10 -8.3590512289788E-10
2  1.0000000000000E-02  3.8711158306477E-02 -4.3389410983115E-03
3  2.0000000000000E-02  7.7416418290833E-02 -8.7404518907014E-03
4  3.0000000000000E-02  1.1610956227223E-01 -1.3265944086137E-02
5  4.0000000000000E-02  1.5478373783977E-01 -1.7974529546787E-02
6  5.0000000000000E-02  1.9343115040858E-01 -2.2921910457306E-02
7  6.0000000000000E-02  2.3204276754896E-01 -2.8159317003592E-02
8  7.0000000000000E-02  2.7060803879451E-01 -3.3732507403067E-02
9  8.0000000000000E-02  3.0911463445109E-01 -3.9680844292599E-02
10  9.0000000000000E-02  3.4754820670272E-01 -4.6036460455823E-02
11  1.0000000000000E-01  3.8589217604580E-01 -5.2823525672198E-02
12  1.1000000000000E-01  4.2412754578232E-01 -6.0057625110663E-02
13  1.2000000000000E-01  4.6223274696984E-01 -6.7745258189920E-02
14  1.3000000000000E-01  5.0018351586490E-01 -7.5883465203343E-02
15  1.4000000000000E-01  5.3795280551156E-01 -8.4459587282012E-02
16  1.5000000000000E-01  5.7551073272261E-01 -9.3451163465391E-02
17  1.6000000000000E-01  6.1282456128238E-01 -1.0282596679063E-01
18  1.7000000000000E-01  6.4985872177276E-01 -1.1254217942220E-01
19  1.8000000000000E-01  6.8657486799163E-01 -1.2254870494797E-01
20  1.9000000000000E-01  7.2293196950306E-01 -1.3278561409273E-01
21  2.0000000000000E-01  7.5888643943376E-01 -1.4318471826766E-01
22  2.1000000000000E-01  7.9439229621803E-01 -1.5367026361230E-01
23  2.2000000000000E-01  8.2940135759721E-01 -1.6415973651415E-01
24  2.3000000000000E-01  8.6386346480487E-01 -1.7456477003630E-01
25  2.4000000000000E-01  8.9772673452009E-01 -1.8479213926318E-01
26  2.5000000000000E-01  9.3093783585264E-01 -1.9474483231152E-01
27  2.6000000000000E-01  9.6344228933895E-01 -2.0432318266265E-01
28  2.7000000000000E-01  9.9518478468070E-01 -2.1342604757053E-01
29  2.8000000000000E-01  1.0261095137509E+00 -2.2195201659998E-01
30  2.9000000000000E-01  1.0561605152284E+00 -2.2980063386169E-01
31  3.0000000000000E-01  1.0852820271035E+00 -2.3687361724271E-01
32  3.1000000000000E-01  1.1134188432224E+00 -2.4307605788830E-01
33  3.2000000000000E-01  1.1405166700162E+00 -2.4831758337515E-01
34  3.3000000000000E-01  1.1665224795779E+00 -2.5251346842563E-01
35  3.4000000000000E-01  1.1913848553222E+00 -2.5558567764499E-01
36  3.5000000000000E-01  1.2150543265760E+00 -2.5746382561038E-01
37  3.6000000000000E-01  1.2374836886076E+00 -2.5808604069225E-01
38  3.7000000000000E-01  1.2586283048020E+00 -2.5739972023393E-01
39  3.8000000000000E-01  1.2784463879338E+00 -2.5536216613675E-01
40  3.9000000000000E-01  1.2968992577624E+00 -2.5194109147930E-01
41  4.0000000000000E-01  1.3139515724885E+00 -2.4711499052054E-01
42  4.1000000000000E-01  1.3295715319476E+00 -2.4087336627400E-01
43  4.2000000000000E-01  1.3437310507795E+00 -2.3321681177195E-01
44  4.3000000000000E-01  1.3564059001966E+00 -2.2415694313755E-01
45  4.4000000000000E-01  1.3675758173718E+00 -2.1371618462442E-01
46  4.5000000000000E-01  1.3772245818700E+00 -2.0192740783770E-01
47  4.6000000000000E-01  1.3853400589629E+00 -1.8883342939278E-01
48  4.7000000000000E-01  1.3919142100719E+00 -1.7448637326829E-01
49  4.8000000000000E-01  1.3969430709871E+00 -1.5894690604097E-01
50  4.9000000000000E-01  1.4004266989017E+00 -1.4228335502620E-01
51  5.0000000000000E-01  1.4023690896720E+00 -1.2457072106149E-01
52  5.1000000000000E-01  1.4027780670640E+00 -1.0588959923832E-01
53  5.2000000000000E-01  1.4016651460715E+00 -8.6325022285681E-02
54  5.3000000000000E-01  1.3990453726815E+00 -6.5965242518794E-02
55  5.4000000000000E-01  1.3949371427205E+00 -4.4900469266548E-02
56  5.5000000000000E-01  1.3893620026327E+00 -2.3221579468705E-02
57  5.6000000000000E-01  1.3823444352189E+00 -1.0188196751663E-03
58  5.7000000000000E-01  1.3739116334977E+00  2.1619482026657E-02
59  5.8000000000000E-01  1.3640932659385E+00  4.4608175587610E-02
60  5.9000000000000E-01  1.3529212363565E+00  6.7866501721053E-02
61  6.0000000000000E-01  1.3404294417568E+00  9.1319239889085E-02
62  6.1000000000000E-01  1.3266535313587E+00  1.1489777438462E-01
63  6.2000000000000E-01  1.3116306699374E+00  1.3854106230540E-01
64  6.3000000000000E-01  1.2953993084771E+00  1.6219648841291E-01
65  6.4000000000000E-01  1.2779989649439E+00  1.8582059328118E-01
66  6.5000000000000E-01  1.2594700177676E+00  2.0937966275627E-01
67  6.6000000000000E-01  1.2398535143603E+00  2.3285016853978E-01
68  6.7000000000000E-01  1.2191909967113E+00  2.5621905166166E-01
69  6.8000000000000E-01  1.1975243457790E+00  2.7948384268858E-01
70  6.9000000000000E-01  1.1748956460622E+00  3.0265261469892E-01
71  7.0000000000000E-01  1.1513470713744E+00  3.2574376731408E-01
72  7.1000000000000E-01  1.1269207924772E+00  3.4878564237714E-01
73  7.2000000000000E-01  1.1016589068533E+00  3.7181597418122E-01
74  7.3000000000000E-01  1.0756033905231E+00  3.9488117944214E-01
75  7.4000000000000E-01  1.0487960714397E+00  4.1803549444721E-01
76  7.5000000000000E-01  1.0212786236383E+00  4.4133996896487E-01
77  7.6000000000000E-01  9.9309258097159E-01  4.6486132853835E-01
78  7.7000000000000E-01  9.6427936894428E-01  4.8867071867880E-01
79  7.8000000000000E-01  9.3488035286392E-01  5.1284234619510E-01
80  7.9000000000000E-01  9.0493690026480E-01  5.3745203442192E-01
81  8.0000000000000E-01  8.7449045533325E-01  5.6257571041354E-01
82  8.1000000000000E-01  8.4358262287574E-01  5.8828784323864E-01
83  8.2000000000000E-01  8.1225525922478E-01  6.1465985332585E-01
84  8.3000000000000E-01  7.8055056737589E-01  6.4175851335848E-01
85  8.4000000000000E-01  7.4851119359234E-01  6.6964436149430E-01
86  8.5000000000000E-01  7.1618032270472E-01  6.9837014768281E-01
87  8.6000000000000E-01  6.8360176936788E-01  7.2797933357793E-01
88  8.7000000000000E-01  6.5082006262001E-01  7.5850466599211E-01
89  8.8000000000000E-01  6.1788052121320E-01  7.8996684302798E-01
90  8.9000000000000E-01  5.8482931735158E-01  8.2237329096084E-01
91  9.0000000000000E-01  5.5171352667804E-01  8.5571706865079E-01
92  9.1000000000000E-01  5.1858116258888E-01  8.8997591475813E-01
93  9.2000000000000E-01  4.8548119322537E-01  9.2511145134010E-01
94  9.3000000000000E-01  4.5246353978408E-01  9.6106855555395E-01
95  9.4000000000000E-01  4.1957905510139E-01  9.9777490920492E-01
96  9.5000000000000E-01  3.8687948179337E-01  1.0351407337942E+00
97  9.6000000000000E-01  3.5441738956591E-01  1.0730587165726E+00
98  9.7000000000000E-01  3.2224609164386E-01  1.1114041309257E+00
99  9.8000000000000E-01  2.9041954059659E-01  1.1500351522391E+00
100  9.9000000000000E-01  2.5899220415320E-01  1.1887933682568E+00
101  1.0000000000000E+00  2.2801892189861E-01  1.2275044808796E+00
102  1.0100000000000E+00  1.9755474401499E-01  1.2659791943917E+00
103  1.0200000000000E+00  1.6765475347642E-01  1.3040142832755E+00
104  1.0300000000000E+00  1.3837387331334E-01  1.3413938311158E+00
105  1.0400000000000E+00  1.0976666073227E-01  1.3778906306117E+00
106  1.0500000000000E+00  8.1887090003379E-02  1.4132677334463E+00
107  1.0600000000000E+00  5.4788326108821E-02  1.4472801377094E+00
108  1.0700000000000E+00  2.8522491179263E-02  1.4796765997484E+00
109  1.0800000000000E+00  3.1404257314777E-03  1.5102015567396E+00
110  1.0900000000000E+00 -2.1308553341153E-02  1.5385971459160E+00
111  1.1000000000000E+00 -4.4776896180872E-02  1.5646053062706E+00
112  1.1100000000000E+00 -6.7219063086255E-02  1.5879699486417E+00
113  1.1200000000000E+00 -8.8591765836493E-02  1.6084391803754E+00
114  1.1300000000000E+00 -1.0885420593696E-01  1.6257675712147E+00
115  1.1400000000000E+00 -1.2796830875435E-01  1.6397184476603E+00
116  1.1500000000000E+00 -1.4589895277853E-01  1.6500662037355E+00
117  1.1600000000000E+00 -1.6261419352926E-01  1.6565986168389E+00
118  1.1700000000000E+00 -1.7808548190585E-01  1.6591191581146E+00
119  1.1800000000000E+00 -1.9228787704900E-01  1.6574492874705E+00
120  1.1900000000000E+00 -2.0520025403128E-01  1.6514307239658E+00
121  1.2000000000000E+00 -2.1680550690572E-01  1.6409276826944E+00
122  1.2100000000000E+00 -2.2709074780501E-01  1.6258290694632E+00
123  1.2200000000000E+00 -2.3604750288400E-01  1.6060506244046E+00
124  1.2300000000000E+00 -2.4367190591893E-01  1.5815370051182E+00
125  1.2400000000000E+00 -2.4996489030419E-01  1.5522637989144E+00
126  1.2500000000000E+00 -2.5493238000339E-01  1.5182394521500E+00
127  1.2600000000000E+00 -2.5858547970187E-01  1.4795071024337E+00
128  1.2700000000000E+00 -2.6094066395444E-01  1.4361462965407E+00
129  1.2800000000000E+00 -2.6201996450680E-01  1.3882745731134E+00
130  1.2900000000000E+00 -2.6185115417979E-01  1.3360488845892E+00
131  1.3000000000000E+00 -2.6046792471966E-01  1.2796668271612E+00
132  1.3100000000000E+00 -2.5791005481833E-01  1.2193676408550E+00
133  1.3200000000000E+00 -2.5422356308218E-01  1.1554329339379E+00
134  1.3300000000000E+00 -2.4946083905923E-01  1.0881870767658E+00
135  1.3400000000000E+00 -2.4368074349153E-01  1.0179971996609E+00
136  1.3500000000000E+00 -2.3694866674527E-01  9.4527271750869E-01
137  1.3600000000000E+00 -2.2933653185742E-01  8.7046429032819E-01
138  1.3700000000000E+00 -2.2092272580349E-01  7.9406211397307E-01
139  1.3800000000000E+00 -2.1179193942047E-01  7.1659341829515E-01
140  1.3900000000000E+00 -2.0203489290280E-01  6.3861903148113E-01
141  1.4000000000000E+00 -1.9174791989239E-01  5.6072884867253E-01
142  1.4100000000000E+00 -1.8103237891418E-01  4.8353602043563E-01
143  1.4200000000000E+00 -1.6999385619414E-01  4.0766965177398E-01
144  1.4300000000000E+00 -1.5874111878901E-01  3.3376577543616E-01
145  1.4400000000000E+00 -1.4738477137612E-01  2.6245633384006E-01
146  1.4500000000000E+00 -1.3603556398760E-01  1.9435587194681E-01
147  1.4600000000000E+00 -1.2480229146409E-01  1.3004560907155E-01
148  1.4700000000000E+00 -1.1378921828883E-01  7.0054520054738E-02
149  1.4800000000000E+00 -1.0309295384829E-01  1.4837007554255E-02
150  1.4900000000000E+00 -9.2798699165565E-02 -3.5253260148491E-02
151  1.5000000000000E+00 -8.2975783132377E-02 -7.9993778822694E-02
152  1.5100000000000E+00 -7.3673166885667E-02 -1.1932196245225E-01
153  1.5200000000000E+00 -6.4923797380185E-02 -1.5328987805300E-01
154  1.5300000000000E+00 -5.6752376737161E-02 -1.8199574077249E-01
155  1.5400000000000E+00 -4.9176265421494E-02 -2.0557597442777E-01
156  1.5500000000000E+00 -4.2205645459198E-02 -2.2420381131473E-01
157  1.5600000000000E+00 -3.5843756331833E-02 -2.3808750018905E-01
158  1.5700000000000E+00 -3.0087196291565E-02 -2.4746817183127E-01
159  1.5800000000000E+00 -2.4926289531307E-02 -2.5261735039779E-01
160  1.5900000000000E+00 -2.0345514244131E-02 -2.5383414176511E-01
161  1.6000000000000E+00 -1.6323986725622E-02 -2.5144212684798E-01
162  1.6100000000000E+00 -1.2835996070035E-02 -2.4578599102677E-01
163  1.6200000000000E+00 -9.8515834161903E-03 -2.3722792405007E-01
164  1.6300000000000E+00 -7.3371591485225E-03 -2.2614382779278E-01
165  1.6400000000000E+00 -5.2561510772482E-03 -2.1291937115231E-01
166  1.6500000000000E+00 -3.5696761933120E-03 -1.9794593376207E-01
167  1.6600000000000E+00 -2.2372283680270E-03 -1.8161648126429E-01
168  1.6700000000000E+00 -1.2173741158874E-03 -1.6432141628543E-01
169  1.6800000000000E+00 -4.6844849677840E-04 -1.4644444930800E-01
170  1.6900000000000E+00  5.0757575120194E-05 -1.2835853675335E-01
171  1.7000000000000E+00  3.8031788164933E-04 -1.1042189830478E-01
172  1.7100000000000E+00  5.5855324558132E-04 -9.2974324875311E-02
173  1.7200000000000E+00  6.2060669115922E-04 -7.6330612656592E-02
174  1.7300000000000E+00  5.9550091330799E-04 -6.0768190923512E-02
175  1.7400000000000E+00  5.1330706514316E-04 -4.6552410150773E-02
176  1.7500000000000E+00  4.0142548291400E-04 -3.3922320397456E-02
177  1.7600000000000E+00  2.8239466359255E-04 -2.3081744812166E-02
178  1.7700000000000E+00  1.7374108330715E-04 -1.4197867787973E-02
179  1.7800000000000E+00  8.7658417280888E-05 -7.4021846728379E-03
180  1.7900000000000E+00  3.0514818245581E-05 -2.7568085914635E-03
181  1.8000000000000E+00  4.2038356867048E-06 -4.2812155803461E-04
182  1.8100000000000E+00 -5.8156477080303E-07  6.3636480446206E-05
183  1.8200000000000E+00  1.7059909765768E-07 -1.7441816739278E-05
184  1.83 -0.  0.
185  1.84 -0. -0.
186  1.85  0.  0.
187  1.86  0.  0.
188  1.87  0.  0.
189  1.88  0.  0.
190  1.89  0.  0.
191  1.90  0.  0.
192  1.91  0.  0.
193  1.92  0.  0.
194  1.93  0.  0.
195  1.94  0.  0.
196  1.95  0.  0.
197  1.96  0.  0.
198  1.97  0.  0.
199  1.98  0.  0.
200  1.99  0.  0.
201  2.00  0.  0.
202  2.01  0.  0.
203  2.02  0.  0.
204  2.03  0.  0.
205  2.04  0.  0.
206  2.05  0.  0.
207  2.06  0.  0.
208  2.07  0.  0.
209  2.08  0.  0.
210  2.09  0.  0.
211  2.10  0.  0.
212  2.11  0.  0.
213  2.12  0.  0.
214  2.13  0.  0.
215  2.14  0.  0.
216  2.15  0.  0.
217  2.16  0.  0.
218  2.17  0.  0.
219  2.18  0.  0.
220  2.19  0.  0.
221  2.20  0.  0.
222  2.21  0.  0.
223  2.22  0.  0.
224  2.23  0.  0.
225  2.24  0.  0.
226  2.25  0.  0.
227  2.26  0.  0.
228  2.27  0.  0.
229  2.28  0.  0.
230  2.29  0.  0.
231  2.30  0.  0.
232  2.31  0.  0.
233  2.32  0.  0.
234  2.33  0.  0.
235  2.34  0.  0.
236  2.35  0.  0.
237  2.36  0.  0.
238  2.37  0.  0.
239  2.38  0.  0.
240  2.39  0.  0.
241  2.40  0.  0.
242  2.41  0.  0.
243  2.42  0.  0.
244  2.43  0.  0.
245  2.44  0.  0.
246  2.45  0.  0.
247  2.46  0.  0.
248  2.47  0.  0.
249  2.48  0.  0.
250  2.49  0.  0.
251  2.50  0.  0.
252  2.51  0.  0.
253  2.52  0.  0.
254  2.53  0.  0.
255  2.54  0.  0.
256  2.55  0.  0.
257  2.56  0.  0.
258  2.57  0.  0.
259  2.58  0.  0.
260  2.59  0.  0.
261  2.60  0.  0.
262  2.61  0.  0.
263  2.62  0.  0.
264  2.63  0.  0.
265  2.64  0.  0.
266  2.65  0.  0.
267  2.66  0.  0.
268  2.67  0.  0.
269  2.68  0.  0.
270  2.69  0.  0.
271  2.70  0.  0.
272  2.71  0.  0.
273  2.72  0.  0.
274  2.73  0.  0.
275  2.74  0.  0.
276  2.75  0.  0.
277  2.76  0.  0.
278  2.77  0.  0.
279  2.78  0.  0.
280  2.79  0.  0.
281  2.80  0.  0.
282  2.81  0.  0.
283  2.82  0.  0.
284  2.83  0.  0.
285  2.84  0.  0.
286  2.85  0.  0.
287  2.86  0.  0.
288  2.87  0.  0.
289  2.88  0.  0.
290  2.89  0.  0.
291  2.90  0.  0.
292  2.91  0.  0.
293  2.92  0.  0.
294  2.93  0.  0.
295  2.94  0.  0.
296  2.95  0.  0.
297  2.96  0.  0.
298  2.97  0.  0.
299  2.98  0.  0.
300  2.99  0.  0.
301  3.00  0.  0.
302  3.01  0.  0.
303  3.02  0.  0.
304  3.03  0.  0.
305  3.04  0.  0.
306  3.05  0.  0.
307  3.06  0.  0.
308  3.07  0.  0.
309  3.08  0.  0.
310  3.09  0.  0.
311  3.10  0.  0.
312  3.11  0.  0.
313  3.12  0.  0.
314  3.13  0.  0.
315  3.14  0.  0.
316  3.15  0.  0.
317  3.16  0.  0.
318  3.17  0.  0.
319  3.18  0.  0.
320  3.19  0.  0.
321  3.20  0.  0.
322  3.21  0.  0.
323  3.22  0.  0.
324  3.23  0.  0.
325  3.24  0.  0.
326  3.25  0.  0.
327  3.26  0.  0.
328  3.27  0.  0.
329  3.28  0.  0.
330  3.29  0.  0.
331  3.30  0.  0.
332  3.31  0.  0.
333  3.32  0.  0.
334  3.33  0.  0.
335  3.34  0.  0.
336  3.35  0.  0.
337  3.36  0.  0.
338  3.37  0.  0.
339  3.38  0.  0.
340  3.39  0.  0.
341  3.40  0.  0.
342  3.41  0.  0.
343  3.42  0.  0.
344  3.43  0.  0.
345  3.44  0.  0.
346  3.45  0.  0.
347  3.46  0.  0.
348  3.47  0.  0.
349  3.48  0.  0.
350  3.49  0.  0.
351  3.50  0.  0.
352  3.51  0.  0.
353  3.52  0.  0.
354  3.53  0.  0.
355  3.54  0.  0.
356  3.55  0.  0.
357  3.56  0.  0.
358  3.57  0.  0.
359  3.58  0.  0.
360  3.59  0.  0.
361  3.60  0.  0.
362  3.61  0.  0.
363  3.62  0.  0.
364  3.63  0.  0.
365  3.64  0.  0.
366  3.65  0.  0.
367  3.66  0.  0.
368  3.67  0.  0.
369  3.68  0.  0.
370  3.69  0.  0.
371  3.70  0.  0.
372  3.71  0.  0.
373  3.72  0.  0.
374  3.73  0.  0.
375  3.74  0.  0.
376  3.75  0.  0.
377  3.76  0.  0.
378  3.77  0.  0.
379  3.78  0.  0.
380  3.79  0.  0.
381  3.80  0.  0.
382  3.81  0.  0.
383  3.82  0.  0.
384  3.83  0.  0.
385  3.84  0.  0.
386  3.85  0.  0.
387  3.86  0.  0.
388  3.87  0.  0.
389  3.88  0.  0.
390  3.89  0.  0.
391  3.90  0.  0.
392  3.91  0.  0.
393  3.92  0.  0.
394  3.93  0.  0.
395  3.94  0.  0.
396  3.95  0.  0.
397  3.96  0.  0.
398  3.97  0.  0.
399  3.98  0.  0.
400  3.99  0.  0.
401  4.00  0.  0.
402  4.01  0.  0.
403  4.02  0.  0.
404  4.03  0.  0.
405  4.04  0.  0.
406  4.05  0.  0.
407  4.06  0.  0.
408  4.07  0.  0.
409  4.08  0.  0.
410  4.09  0.  0.
411  4.10  0.  0.
412  4.11  0.  0.
413  4.12  0.  0.
414  4.13  0.  0.
415  4.14  0.  0.
416  4.15  0.  0.
417  4.16  0.  0.
418  4.17  0.  0.
419  4.18  0.  0.
420  4.19  0.  0.
421  4.20  0.  0.
422  4.21  0.  0.
423  4.22  0.  0.
424  4.23  0.  0.
425  4.24  0.  0.
426  4.25  0.  0.
427  4.26  0.  0.
428  4.27  0.  0.
429  4.28  0.  0.
430  4.29  0.  0.
431  4.30  0.  0.
432  4.31  0.  0.
433  4.32  0.  0.
434  4.33  0.  0.
435  4.34  0.  0.
436  4.35  0.  0.
437  4.36  0.  0.
438  4.37  0.  0.
439  4.38  0.  0.
440  4.39  0.  0.
441  4.40  0.  0.
442  4.41  0.  0.
443  4.42  0.  0.
444  4.43  0.  0.
445  4.44  0.  0.
446  4.45  0.  0.
447  4.46  0.  0.
448  4.47  0.  0.
449  4.48  0.  0.
450  4.49  0.  0.
451  4.50  0.  0.
452  4.51  0.  0.
453  4.52  0.  0.
454  4.53  0.  0.
455  4.54  0.  0.
456  4.55  0.  0.
457  4.56  0.  0.
458  4.57  0.  0.
459  4.58  0.  0.
460  4.59  0.  0.
461  4.60  0.  0.
462  4.61  0.  0.
463  4.62  0.  0.
464  4.63  0.  0.
465  4.64  0.  0.
466  4.65  0.  0.
467  4.66  0.  0.
468  4.67  0.  0.
469  4.68  0.  0.
470  4.69  0.  0.
471  4.70  0.  0.
472  4.71  0.  0.
473  4.72  0.  0.
474  4.73  0.  0.
475  4.74  0.  0.
476  4.75  0.  0.
477  4.76  0.  0.
478  4.77  0.  0.
479  4.78  0.  0.
480  4.79  0.  0.
481  4.80  0.  0.
482  4.81  0.  0.
483  4.82  0.  0.
484  4.83  0.  0.
485  4.84  0.  0.
486  4.85  0.  0.
487  4.86  0.  0.
488  4.87  0.  0.
489  4.88  0.  0.
490  4.89  0.  0.
491  4.90  0.  0.
492  4.91  0.  0.
493  4.92  0.  0.
494  4.93  0.  0.
495  4.94  0.  0.
496  4.95  0.  0.
497  4.96  0.  0.
498  4.97  0.  0.
499  4.98  0.  0.
500  4.99  0.  0.
501  5.00  0.  0.
502  5.01  0.  0.
503  5.02  0.  0.
504  5.03  0.  0.
505  5.04  0.  0.
506  5.05  0.  0.
507  5.06  0.  0.
508  5.07  0.  0.
509  5.08  0.  0.
510  5.09  0.  0.
511  5.10  0.  0.
512  5.11  0.  0.
513  5.12  0.  0.
514  5.13  0.  0.
515  5.14  0.  0.
516  5.15  0.  0.
517  5.16  0.  0.
518  5.17  0.  0.
519  5.18  0.  0.
520  5.19  0.  0.
521  5.20  0.  0.
522  5.21  0.  0.
523  5.22  0.  0.
524  5.23  0.  0.
525  5.24  0.  0.
526  5.25  0.  0.
527  5.26  0.  0.
528  5.27  0.  0.
529  5.28  0.  0.
530  5.29  0.  0.
531  5.30  0.  0.
532  5.31  0.  0.
533  5.32  0.  0.
534  5.33  0.  0.
535  5.34  0.  0.
536  5.35  0.  0.
537  5.36  0.  0.
538  5.37  0.  0.
539  5.38  0.  0.
540  5.39  0.  0.
541  5.40  0.  0.
542  5.41  0.  0.
543  5.42  0.  0.
544  5.43  0.  0.
545  5.44  0.  0.
546  5.45  0.  0.
547  5.46  0.  0.
548  5.47  0.  0.
549  5.48  0.  0.
550  5.49  0.  0.
551  5.50  0.  0.
552  5.51  0.  0.
553  5.52  0.  0.
554  5.53  0.  0.
555  5.54  0.  0.
556  5.55  0.  0.
557  5.56  0.  0.
558  5.57  0.  0.
559  5.58  0.  0.
560  5.59  0.  0.
561  5.60  0.  0.
562  5.61  0.  0.
563  5.62  0.  0.
564  5.63  0.  0.
565  5.64  0.  0.
566  5.65  0.  0.
567  5.66  0.  0.
568  5.67  0.  0.
569  5.68  0.  0.
570  5.69  0.  0.
571  5.70  0.  0.
572  5.71  0.  0.
573  5.72  0.  0.
574  5.73  0.  0.
575  5.74  0.  0.
576  5.75  0.  0.
577  5.76  0.  0.
578  5.77  0.  0.
579  5.78  0.  0.
580  5.79  0.  0.
581  5.80  0.  0.
582  5.81  0.  0.
583  5.82  0.  0.
584  5.83  0.  0.
585  5.84  0.  0.
586  5.85  0.  0.
587  5.86  0.  0.
588  5.87  0.  0.
589  5.88  0.  0.
590  5.89  0.  0.
591  5.90  0.  0.
592  5.91  0.  0.
593  5.92  0.  0.
594  5.93  0.  0.
595  5.94  0.  0.
596  5.95  0.  0.
597  5.96  0.  0.
598  5.97  0.  0.
599  5.98  0.  0.
600  5.99  0.  0.
1                         6.1985340513309E+00  2.9512816872348E-01
1  0.0000000000000E+00  2.1475067418786E-09 -1.5442906411978E-08
2  1.0000000000000E-02  1.0385921559823E-03 -9.0264026306529E-04
3  2.0000000000000E-02  4.1493156739618E-03 -3.5894241312119E-03
4  3.0000000000000E-02  9.3170776328702E-03 -7.9973906578486E-03
5  4.0000000000000E-02  1.6516941657052E-02 -1.4023095203968E-02
6  5.0000000000000E-02  2.5714451235848E-02 -2.1524813118133E-02
7  6.0000000000000E-02  3.6866073621674E-02 -3.0325562071497E-02
8  7.0000000000000E-02  4.9919755765523E-02 -4.0216881711030E-02
9  8.0000000000000E-02  6.4815581601288E-02 -5.0963293851238E-02
10  9.0000000000000E-02  8.1486518054793E-02 -6.2307352489036E-02
11  1.0000000000000E-01  9.9859235468261E-02 -7.3975180772511E-02
12  1.1000000000000E-01  1.1985498673012E-01 -8.5682381923903E-02
13  1.2000000000000E-01  1.4139052831156E-01 -9.7140203211571E-02
14  1.3000000000000E-01  1.6437906565762E-01 -1.0806182654619E-01
15  1.4000000000000E-01  1.8873120497725E-01 -1.1816865625520E-01
16  1.5000000000000E-01  2.1435589343256E-01 -1.2719647413421E-01
17  1.6000000000000E-01  2.4116133004497E-01 -1.3490133399972E-01
18  1.7000000000000E-01  2.6905583030872E-01 -1.4106507264166E-01
19  1.8000000000000E-01  2.9794862851921E-01 -1.4550032121390E-01
20  1.9000000000000E-01  3.2775060316559E-01 -1.4805491057480E-01
21  2.0000000000000E-01  3.5837491237797E-01 -1.4861557572301E-01
22  2.1000000000000E-01  3.8973752832907E-01 -1.4711087804532E-01
23  2.2000000000000E-01  4.2175766163082E-01 -1.4351327934889E-01
24  2.3000000000000E-01  4.5435806909661E-01 -1.3784031829628E-01
25  2.4000000000000E-01  4.8746524071482E-01 -1.3015485758107E-01
26  2.5000000000000E-01  5.2100946424996E-01 -1.2056438863299E-01
27  2.6000000000000E-01  5.5492476850325E-01 -1.0921939946656E-01
28  2.7000000000000E-01  5.8914874887382E-01 -9.6310830120915E-02
29  2.8000000000000E-01  6.2362228141165E-01 -8.2066658612159E-02
30  2.9000000000000E-01  6.5828913399366E-01 -6.6747678069695E-02
31  3.0000000000000E-01  6.9309548553438E-01 -5.0642542403276E-02
32  3.1000000000000E-01  7.2798936621697E-01 -3.4062173115010E-02
33  3.2000000000000E-01  7.6292003355452E-01 -1.7333633422408E-02
34  3.3000000000000E-01  7.9783730062799E-01 -7.9358741836445E-04
35  3.4000000000000E-01  8.3269083406231E-01  1.5218528677916E-02
36  3.5000000000000E-01  8.6742944016856E-01  3.0367489227632E-02
37  3.6000000000000E-01  9.0200035817767E-01  4.4329277570660E-02
38  3.7000000000000E-01  9.3634857960540E-01  5.6797960221624E-02
39  3.8000000000000E-01  9.7041621251382E-01  6.7492298082331E-02
40  3.9000000000000E-01  1.0041419087720E+00  7.6161959741201E-02
41  4.0000000000000E-01  1.0374603713766E+00  8.2593208469757E-02
42  4.1000000000000E-01  1.0703019574892E+00  8.6613943647744E-02
43  4.2000000000000E-01  1.1025923911025E+00  8.8097988896389E-02
44  4.3000000000000E-01  1.1342525971957E+00  8.6968532969311E-02
45  4.4000000000000E-01  1.1651986669132E+00  8.3200645194544E-02
46  4.5000000000000E-01  1.1953419607467E+00  7.6822804689049E-02
47  4.6000000000000E-01  1.2245893539636E+00  6.7917401356685E-02
48  4.7000000000000E-01  1.2528436256540E+00  5.6620186476369E-02
49  4.8000000000000E-01  1.2800039898258E+00  4.3118671115286E-02
50  4.9000000000000E-01  1.3059667640100E+00  2.7649491270278E-02
51  5.0000000000000E-01  1.3306261679117E+00  1.0494779148108E-02
52  5.1000000000000E-01  1.3538752418100E+00 -8.0224000559289E-03
53  5.2000000000000E-01  1.3756068717281E+00 -2.7543467527559E-02
54  5.3000000000000E-01  1.3957149059225E+00 -4.7680510335590E-02
55  5.4000000000000E-01  1.4140953450201E+00 -6.8023109077997E-02
56  5.5000000000000E-01  1.4306475862207E+00 -8.8145687727893E-02
57  5.6000000000000E-01  1.4452757004109E+00 -1.0761524808781E-01
58  5.7000000000000E-01  1.4578897198483E+00 -1.2599934217373E-01
59  5.8000000000000E-01  1.4684069132936E+00 -1.4287412952456E-01
60  5.9000000000000E-01  1.4767530251172E+00 -1.5783236302305E-01
61  6.0000000000000E-01  1.4828634549989E+00 -1.7049114641610E-01
62  6.1000000000000E-01  1.4866843553762E+00 -1.8049930937738E-01
63  6.2000000000000E-01  1.4881736247802E+00 -1.8754425164380E-01
64  6.3000000000000E-01  1.4873017766059E+00 -1.9135811640453E-01
65  6.4000000000000E-01  1.4840526646905E+00 -1.9172316458901E-01
66  6.5000000000000E-01  1.4784240492704E+00 -1.8847623580190E-01
67  6.6000000000000E-01  1.4704279894395E+00 -1.8151219813891E-01
68  6.7000000000000E-01  1.4600910510758E+00 -1.7078630770280E-01
69  6.8000000000000E-01  1.4474543223031E+00 -1.5631541897884E-01
70  6.9000000000000E-01  1.4325732318532E+00 -1.3817800895841E-01
71  7.0000000000000E-01  1.4155171691205E+00 -1.1651300060746E-01
72  7.1000000000000E-01  1.3963689082125E+00 -9.1517394538710E-02
73  7.2000000000000E-01  1.3752238418096E+00 -6.3442741118937E-02
74  7.3000000000000E-01  1.3521890341100E+00 -3.2590508276059E-02
75  7.4000000000000E-01  1.3273821054677E+00  6.9357748623057E-04
76  7.5000000000000E-01  1.3009299644834E+00  3.6026118338039E-02
77  7.6000000000000E-01  1.2729674062087E+00  7.2993442736871E-02
78  7.7000000000000E-01  1.2436355977235E+00  1.1115967816817E-01
79  7.8000000000000E-01  1.2130804745855E+00  1.5007534883376E-01
80  7.9000000000000E-01  1.1814510734935E+00  1.8928633587569E-01
81  8.0000000000000E-01  1.1488978279026E+00  2.2834302846518E-01
82  8.1000000000000E-01  1.1155708542580E+00  2.6680948801390E-01
83  8.2000000000000E-01  1.0816182569506E+00  3.0427244503358E-01
84  8.3000000000000E-01  1.0471844800231E+00  3.4034994886666E-01
85  8.4000000000000E-01  1.0124087330761E+00  3.7469949466434E-01
86  8.5000000000000E-01  9.7742351773899E-01  4.0702545955721E-01
87  8.6000000000000E-01  9.4235327949567E-01  4.3708569084068E-01
88  8.7000000000000E-01  9.0731320762062E-01  4.6469710301653E-01
89  8.8000000000000E-01  8.7240820351340E-01  4.8974015745749E-01
90  8.9000000000000E-01  8.3773203486708E-01  5.1216211800695E-01
91  9.0000000000000E-01  8.0336668991383E-01  5.3197899765157E-01
92  9.1000000000000E-01  7.6938194251822E-01  5.4927613511982E-01
93  9.2000000000000E-01  7.3583513519534E-01  5.6420736543995E-01
94  9.3000000000000E-01  7.0277118328444E-01  5.7699277468120E-01
95  9.4000000000000E-01  6.7022279957828E-01  5.8791505581783E-01
96  9.5000000000000E-01  6.3821093476549E-01  5.9731450940937E-01
97  9.6000000000000E-01  6.0674542515978E-01  6.0558275907754E-01
98  9.7000000000000E-01  5.7582583543756E-01  6.1315527709811E-01
99  9.8000000000000E-01  5.4544248055208E-01  6.2050283932987E-01
100  9.9000000000000E-01  5.1557760770497E-01  6.2812205072434E-01
101  1.0000000000000E+00  4.8620671629427E-01  6.3652510237286E-01
102  1.0100000000000E+00  4.5729999117681E-01  6.4622893808503E-01
103  1.0200000000000E+00  4.2882382242957E-01  6.5774402251025E-01
104  1.0300000000000E+00  4.0074238311096E-01  6.7156291353918E-01
105  1.0400000000000E+00  3.7301923533713E-01  6.8814884894394E-01
106  1.0500000000000E+00  3.4561893432486E-01  7.0792456077288E-01
107  1.0600000000000E+00  3.1850859992299E-01  7.3126153082393E-01
108  1.0700000000000E+00  2.9165942555953E-01  7.5846989656684E-01
109  1.0800000000000E+00  2.6504809546907E-01  7.8978920919725E-01
110  1.0900000000000E+00  2.3865808250872E-01  8.2538023425031E-01
111  1.1000000000000E+00  2.1248080080949E-01  8.6531797046165E-01
112  1.1100000000000E+00  1.8651658988768E-01  9.0958604472807E-01
113  1.1200000000000E+00  1.6077550964165E-01  9.5807262018898E-01
114  1.1300000000000E+00  1.3527792880280E-01  1.0105679311877E+00
115  1.1400000000000E+00  1.1005489287359E-01  1.0667635333272E+00
116  1.1500000000000E+00  8.5148261274137E-02  1.1262533296720E+00
117  1.1600000000000E+00  6.0610607307160E-02  1.1885364055389E+00
118  1.1700000000000E+00  3.6504878528286E-02  1.2530216750361E+00
119  1.1800000000000E+00  1.2903819162536E-02  1.3190343126245E+00
120  1.1900000000000E+00 -1.0110839795331E-02  1.3858239134383E+00
121  1.2000000000000E+00 -3.2449413204175E-02  1.4525742967735E+00
122  1.2100000000000E+00 -5.4015503762323E-02  1.5184148390732E+00
123  1.2200000000000E+00 -7.4707436396170E-02  1.5824331957638E+00
124  1.2300000000000E+00 -9.4419864761145E-02  1.6436892461191E+00
125  1.2400000000000E+00 -1.1304552653455E-01  1.7012300721878E+00
126  1.2500000000000E+00 -1.3047712146525E-01  1.7541057617829E+00
127  1.2600000000000E+00 -1.4660928381466E-01  1.8013858071205E+00
128  1.2700000000000E+00 -1.6134061885928E-01  1.8421758547485E+00
129  1.2800000000000E+00 -1.7457577155561E-01  1.8756345491389E+00
130  1.2900000000000E+00 -1.8622749429604E-01  1.9009902017475E+00
131  1.3000000000000E+00 -1.9621867988745E-01  1.9175570093110E+00
132  1.3100000000000E+00 -2.0448432545491E-01  1.9247505395990E+00
133  1.3200000000000E+00 -2.1097339287874E-01  1.9221021995520E+00
134  1.3300000000000E+00 -2.1565053157345E-01  1.9092723994233E+00
135  1.3400000000000E+00 -2.1849762987283E-01  1.8860621269172E+00
136  1.3500000000000E+00 -2.1951516193580E-01  1.8524226469823E+00
137  1.3600000000000E+00 -2.1872329787297E-01  1.8084630454387E+00
138  1.3700000000000E+00 -2.1616274564942E-01  1.7544553375422E+00
139  1.3800000000000E+00 -2.1189529416846E-01  1.6908368653837E+00
140  1.3900000000000E+00 -2.0600402770509E-01  1.6182097101477E+00
141  1.4000000000000E+00 -1.9859318245632E-01  1.5373368461315E+00
142  1.4100000000000E+00 -1.8978761632495E-01  1.4491347624989E+00
143  1.4200000000000E+00 -1.7973186306316E-01  1.3546622753460E+00
144  1.4300000000000E+00 -1.6858874148798E-01  1.2551052462432E+00
145  1.4400000000000E+00 -1.5653748955460E-01  1.1517569133544E+00
146  1.4500000000000E+00 -1.4377139154020E-01  1.0459935268603E+00
147  1.4600000000000E+00 -1.3049486439704E-01  9.3924496139910E-01
148  1.4700000000000E+00 -1.1691996633664E-01  8.3295995352581E-01
149  1.4800000000000E+00 -1.0326228624396E-01  7.2856557082004E-01