Eu    ONCVPSP-4.0.1  r_core=   1.80578   1.60216   1.70093   1.40459
63.0000     17.0000      221106    zatom,zion,pspd
8      11   3     4   600     0    pspcod,pspxc,lmax,lloc,mmax,r2well
5.99000000  0.25000000  0.00000000    rchrg fchrg qchrg
2     2     2     2     0    nproj
1     1           extension_switch
0                         9.0696225695704E+00  7.8550908122392E-01
1  0.0000000000000E+00  1.5401091513212E-10 -5.3436684938069E-10
2  1.0000000000000E-02  3.4878222874896E-02 -4.9308097017872E-03
3  2.0000000000000E-02  6.9763019389926E-02 -9.9124779505328E-03
4  3.0000000000000E-02  1.0466062247099E-01 -1.4995010488859E-02
5  4.0000000000000E-02  1.3957658726931E-01 -2.0226718327611E-02
6  5.0000000000000E-02  1.7451546136892E-01 -2.5653397434396E-02
7  6.0000000000000E-02  2.0948046579756E-01 -3.1317540503276E-02
8  7.0000000000000E-02  2.4447319025928E-01 -3.7257590864247E-02
9  8.0000000000000E-02  2.7949330585322E-01 -4.3507248056723E-02
10  9.0000000000000E-02  3.1453829835367E-01 -5.0094833935989E-02
11  1.0000000000000E-01  3.4960322490423E-01 -5.7042727413136E-02
12  1.1000000000000E-01  3.8468049672608E-01 -6.4366875057310E-02
13  1.2000000000000E-01  4.1975969015944E-01 -7.2076383824655E-02
14  1.3000000000000E-01  4.5482738805231E-01 -8.0173201133416E-02
15  1.4000000000000E-01  4.8986705318378E-01 -8.8651886391960E-02
16  1.5000000000000E-01  5.2485893506569E-01 -9.7499476920547E-02
17  1.6000000000000E-01  5.5978001110839E-01 -1.0669545000200E-01
18  1.7000000000000E-01  5.9460396276970E-01 -1.1621178156770E-01
19  1.8000000000000E-01  6.2930118693300E-01 -1.2601310078747E-01
20  1.9000000000000E-01  6.6383884238715E-01 -1.3605693860187E-01
21  2.0000000000000E-01  6.9818093090958E-01 -1.4629406702813E-01
22  2.1000000000000E-01  7.3228841209033E-01 -1.5666892490210E-01
23  2.2000000000000E-01  7.6611935068233E-01 -1.6712012460318E-01
24  2.3000000000000E-01  7.9962909492584E-01 -1.7758103326155E-01
25  2.4000000000000E-01  8.3277048397662E-01 -1.8798042098138E-01
26  2.5000000000000E-01  8.6549408227179E-01 -1.9824316774159E-01
27  2.6000000000000E-01  8.9774843839726E-01 -2.0829101987011E-01
28  2.7000000000000E-01  9.2948036577966E-01 -2.1804338633799E-01
29  2.8000000000000E-01  9.6063524231634E-01 -2.2741816459516E-01
30  2.9000000000000E-01  9.9115732588113E-01 -2.3633258527758E-01
31  3.0000000000000E-01  1.0209900825038E+00 -2.4470406486212E-01
32  3.1000000000000E-01  1.0500765239180E+00 -2.5245105523383E-01
33  3.2000000000000E-01  1.0783595511093E+00 -2.5949387916398E-01
34  3.3000000000000E-01  1.1057823004661E+00 -2.6575554087505E-01
35  3.4000000000000E-01  1.1322884891541E+00 -2.7116250119089E-01
36  3.5000000000000E-01  1.1578227563810E+00 -2.7564540723249E-01
37  3.6000000000000E-01  1.1823309973134E+00 -2.7913976721629E-01
38  3.7000000000000E-01  1.2057606865275E+00 -2.8158656163818E-01
39  3.8000000000000E-01  1.2280611880414E+00 -2.8293278297016E-01
40  3.9000000000000E-01  1.2491840491657E+00 -2.8313189695124E-01
41  4.0000000000000E-01  1.2690832756336E+00 -2.8214421960514E-01
42  4.1000000000000E-01  1.2877155857216E+00 -2.7993720525293E-01
43  4.2000000000000E-01  1.3050406413454E+00 -2.7648564199388E-01
44  4.3000000000000E-01  1.3210212544100E+00 -2.7177175238770E-01
45  4.4000000000000E-01  1.3356235670031E+00 -2.6578519836804E-01
46  4.5000000000000E-01  1.3488172043429E+00 -2.5852299073656E-01
47  4.6000000000000E-01  1.3605753997260E+00 -2.4998930490760E-01
48  4.7000000000000E-01  1.3708750910507E+00 -2.4019520588231E-01
49  4.8000000000000E-01  1.3796969888327E+00 -2.2915828670644E-01
50  4.9000000000000E-01  1.3870256159553E+00 -2.1690222589260E-01
51  5.0000000000000E-01  1.3928493197211E+00 -2.0345627044922E-01
52  5.1000000000000E-01  1.3971602570813E+00 -1.8885465223575E-01
53  5.2000000000000E-01  1.3999543542094E+00 -1.7313594634546E-01
54  5.3000000000000E-01  1.4012312418610E+00 -1.5634238108569E-01
55  5.4000000000000E-01  1.4009941682085E+00 -1.3851910987089E-01
56  5.5000000000000E-01  1.3992498910616E+00 -1.1971345595258E-01
57  5.6000000000000E-01  1.3960085515775E+00 -9.9974141375773E-02
58  5.7000000000000E-01  1.3912835317281E+00 -7.9350511862943E-02
59  5.8000000000000E-01  1.3850912979142E+00 -5.7891769481255E-02
60  5.9000000000000E-01  1.3774512332164E+00 -3.5646224941846E-02
61  6.0000000000000E-01  1.3683854608261E+00 -1.2660581210248E-02
62  6.1000000000000E-01  1.3579186612236E+00  1.1020740223704E-02
63  6.2000000000000E-01  1.3460778856572E+00  3.5356219557656E-02
64  6.3000000000000E-01  1.3328923684289E+00  6.0307795153245E-02
65  6.4000000000000E-01  1.3183933404115E+00  8.5841346847968E-02
66  6.5000000000000E-01  1.3026138461057E+00  1.1192709759534E-01
67  6.6000000000000E-01  1.2855885664077E+00  1.3853992597411E-01
68  6.7000000000000E-01  1.2673536490813E+00  1.6565958326369E-01
69  6.8000000000000E-01  1.2479465487389E+00  1.9327081003649E-01
70  6.9000000000000E-01  1.2274058779182E+00  2.2136334854971E-01
71  7.0000000000000E-01  1.2057712706082E+00  2.4993184861323E-01
72  7.1000000000000E-01  1.1830832593334E+00  2.7897566604685E-01
73  7.2000000000000E-01  1.1593831666474E+00  3.0849855430116E-01
74  7.3000000000000E-01  1.1347130116272E+00  3.3850825128236E-01
75  7.4000000000000E-01  1.1091154316955E+00  3.6901596487193E-01
76  7.5000000000000E-01  1.0826336198377E+00  4.0003576204929E-01
77  7.6000000000000E-01  1.0553112770271E+00  4.3158386789017E-01
78  7.7000000000000E-01  1.0271925794261E+00  4.6367788200757E-01
79  7.8000000000000E-01  9.9832215970384E-01  4.9633592120972E-01
80  7.9000000000000E-01  9.6874510159112E-01  5.2957569825554E-01
81  8.0000000000000E-01  9.3850694660600E-01  5.6341354757751E-01
82  8.1000000000000E-01  9.0765371170405E-01  5.9786340970635E-01
83  8.2000000000000E-01  8.7623191646192E-01  6.3293578685855E-01
84  8.3000000000000E-01  8.4428861827622E-01  6.6863668273162E-01
85  8.4000000000000E-01  8.1187145396117E-01  7.0496653998786E-01
86  8.5000000000000E-01  7.7902868605478E-01  7.4191918919200E-01
87  8.6000000000000E-01  7.4580925209543E-01  7.7948082310291E-01
88  8.7000000000000E-01  7.1226281510717E-01  8.1762901020574E-01
89  8.8000000000000E-01  6.7843981353125E-01  8.5633176121474E-01
90  8.9000000000000E-01  6.4439150886243E-01  8.9554666198346E-01
91  9.0000000000000E-01  6.1017002928766E-01  9.3522008583993E-01
92  9.1000000000000E-01  5.7582840768008E-01  9.7528649782822E-01
93  9.2000000000000E-01  5.4142061236955E-01  1.0156678626979E+00
94  9.3000000000000E-01  5.0700156918817E-01  1.0562731677526E+00
95  9.4000000000000E-01  4.7262717337339E-01  1.0969980708637E+00
96  9.5000000000000E-01  4.3835428999671E-01  1.1377246830848E+00
97  9.6000000000000E-01  4.0424074167138E-01  1.1783214943914E+00
98  9.7000000000000E-01  3.7034528237282E-01  1.2186434501195E+00
99  9.8000000000000E-01  3.3672755627851E-01  1.2585321847107E+00
100  9.9000000000000E-01  3.0344804059746E-01  1.2978164183938E+00
101  1.0000000000000E+00  2.7056797140990E-01  1.3363125214573E+00
102  1.0100000000000E+00  2.3814925157573E-01  1.3738252497982E+00
103  1.0200000000000E+00  2.0625433979316E-01  1.4101486544749E+00
104  1.0300000000000E+00  1.7494611989886E-01  1.4450671670427E+00
105  1.0400000000000E+00  1.4428774949757E-01  1.4783568615139E+00
106  1.0500000000000E+00  1.1434248699611E-01  1.5097868928382E+00
107  1.0600000000000E+00  8.5173496097146E-02  1.5391211108492E+00
108  1.0700000000000E+00  5.6843626786864E-02  1.5661198476286E+00
109  1.0800000000000E+00  2.9415171833862E-02  1.5905418751996E+00
110  1.0900000000000E+00  2.9495978129253E-03  1.6121465293318E+00
111  1.1000000000000E+00 -2.2492750315910E-02  1.6306959939880E+00
112  1.1100000000000E+00 -4.6852971992974E-02  1.6459577395408E+00
113  1.1200000000000E+00 -7.0073962035961E-02  1.6577071062636E+00
114  1.1300000000000E+00 -9.2100790484155E-02  1.6657300227357E+00
115  1.1400000000000E+00 -1.1288111176180E-01  1.6698258466020E+00
116  1.1500000000000E+00 -1.3236560330061E-01  1.6698103125642E+00
117  1.1600000000000E+00 -1.5050843334091E-01  1.6655185694516E+00
118  1.1700000000000E+00 -1.6726775708747E-01  1.6568082846848E+00
119  1.1800000000000E+00 -1.8260623970105E-01  1.6435627902790E+00
120  1.1900000000000E+00 -1.9649160375177E-01  1.6256942397193E+00
121  1.2000000000000E+00 -2.0889719770316E-01  1.6031467393907E+00
122  1.2100000000000E+00 -2.1980258073639E-01  1.5758994117841E+00
123  1.2200000000000E+00 -2.2919411771379E-01  1.5439693402132E+00
124  1.2300000000000E+00 -2.3706557630814E-01  1.5074143362354E+00
125  1.2400000000000E+00 -2.4341871626530E-01  1.4663354612706E+00
126  1.2500000000000E+00 -2.4826385836924E-01  1.4208792228382E+00
127  1.2600000000000E+00 -2.5162041795038E-01  1.3712393534370E+00
128  1.2700000000000E+00 -2.5351738465676E-01  1.3176580661066E+00
129  1.2800000000000E+00 -2.5399372666854E-01  1.2604266650310E+00
130  1.2900000000000E+00 -2.5309869357084E-01  1.1998853721591E+00
131  1.3000000000000E+00 -2.5089198764138E-01  1.1364222114192E+00
132  1.3100000000000E+00 -2.4744376833465E-01  1.0704707706250E+00
133  1.3200000000000E+00 -2.4283444923013E-01  1.0025066374960E+00
134  1.3300000000000E+00 -2.3715424061915E-01  9.3304228019031E-01
135  1.3400000000000E+00 -2.3050238414674E-01  8.6262011399635E-01
136  1.3500000000000E+00 -2.2298601853479E-01  7.9180346450656E-01
137  1.3600000000000E+00 -2.1471860730354E-01  7.2116510331436E-01
138  1.3700000000000E+00 -2.0581785052888E-01  6.5127299482341E-01
139  1.3800000000000E+00 -1.9640299286580E-01  5.8267285105868E-01
140  1.3900000000000E+00 -1.8659142609469E-01  5.1586702180557E-01
141  1.4000000000000E+00 -1.7649452756627E-01  4.5128961224538E-01
142  1.4100000000000E+00 -1.6621240818490E-01  3.8927571600266E-01
143  1.4200000000000E+00 -1.5583221593723E-01  3.3006067516773E-01
144  1.4300000000000E+00 -1.4543424795598E-01  2.7383668816102E-01
145  1.4400000000000E+00 -1.3509446408948E-01  2.2077545075270E-01
146  1.4500000000000E+00 -1.2488394049129E-01  1.7102569342172E-01
147  1.4600000000000E+00 -1.1486851104726E-01  1.2471207528420E-01
148  1.4700000000000E+00 -1.0510842633160E-01  8.1934031966078E-02
149  1.4800000000000E+00 -9.5658068671510E-02  4.2764880331479E-02
150  1.4900000000000E+00 -8.6565724103581E-02  7.2511730842838E-03
151  1.5000000000000E+00 -7.7873413662483E-02 -2.4587687195213E-02
152  1.5100000000000E+00 -6.9616785777197E-02 -5.2759567986524E-02
153  1.5200000000000E+00 -6.1825070941424E-02 -7.7299456662858E-02
154  1.5300000000000E+00 -5.4521099120537E-02 -9.8269039285253E-02
155  1.5400000000000E+00 -4.7721379668601E-02 -1.1575601039758E-01
156  1.5500000000000E+00 -4.1436242871377E-02 -1.2987311864949E-01
157  1.5600000000000E+00 -3.5670041515652E-02 -1.4075695623892E-01
158  1.5700000000000E+00 -3.0421410236007E-02 -1.4856650292111E-01
159  1.5800000000000E+00 -2.5683579734713E-02 -1.5348143817296E-01
160  1.5900000000000E+00 -2.1444742369267E-02 -1.5570023765390E-01
161  1.6000000000000E+00 -1.7688464989329E-02 -1.5543807278894E-01
162  1.6100000000000E+00 -1.4394144399996E-02 -1.5292453439825E-01
163  1.6200000000000E+00 -1.1537500336648E-02 -1.4840120340620E-01
164  1.6300000000000E+00 -9.0911003715947E-03 -1.4211909368904E-01
165  1.6400000000000E+00 -7.0249108631615E-03 -1.3433599333096E-01
166  1.6500000000000E+00 -5.3068676965103E-03 -1.2531373216612E-01
167  1.6600000000000E+00 -3.9034603797361E-03 -1.1531540417516E-01
168  1.6700000000000E+00 -2.7803228523922E-03 -1.0460257421217E-01
169  1.6800000000000E+00 -1.9028243265576E-03 -9.3432498585720E-02
170  1.6900000000000E+00 -1.2366528021784E-03 -8.2055391050717E-02
171  1.7000000000000E+00 -7.4839191825165E-04 -7.0711742373128E-02
172  1.7100000000000E+00 -4.0604549636765E-04 -5.9629833909111E-02
173  1.7200000000000E+00 -1.8025638942550E-04 -4.9021291244622E-02
174  1.7300000000000E+00 -4.6847810918020E-05 -3.9072616253791E-02
175  1.7400000000000E+00  1.9364999384475E-05 -2.9962530343456E-02
176  1.7500000000000E+00  4.1391491759450E-05 -2.1852322049998E-02
177  1.7600000000000E+00  3.8183570311483E-05 -1.4879769582504E-02
178  1.7700000000000E+00  2.4506119562037E-05 -9.1581823408198E-03
179  1.7800000000000E+00  1.0635020200253E-05 -4.7769437918367E-03
180  1.7900000000000E+00  2.2126962940470E-06 -1.7796963075997E-03
181  1.8000000000000E+00 -1.1199443177021E-07 -2.7644381273358E-04
182  1.8100000000000E+00  5.1592659468143E-08  4.1102327869978E-05
183  1.8200000000000E+00 -4.6621520600987E-09 -1.1264347475134E-05
184  1.83 -0.  0.
185  1.84  0. -0.
186  1.85  0.  0.
187  1.86  0.  0.
188  1.87  0.  0.
189  1.88  0.  0.
190  1.89  0.  0.
191  1.90  0.  0.
192  1.91  0.  0.
193  1.92  0.  0.
194  1.93  0.  0.
195  1.94  0.  0.
196  1.95  0.  0.
197  1.96  0.  0.
198  1.97  0.  0.
199  1.98  0.  0.
200  1.99  0.  0.
201  2.00  0.  0.
202  2.01  0.  0.
203  2.02  0.  0.
204  2.03  0.  0.
205  2.04  0.  0.
206  2.05  0.  0.
207  2.06  0.  0.
208  2.07  0.  0.
209  2.08  0.  0.
210  2.09  0.  0.
211  2.10  0.  0.
212  2.11  0.  0.
213  2.12  0.  0.
214  2.13  0.  0.
215  2.14  0.  0.
216  2.15  0.  0.
217  2.16  0.  0.
218  2.17  0.  0.
219  2.18  0.  0.
220  2.19  0.  0.
221  2.20  0.  0.
222  2.21  0.  0.
223  2.22  0.  0.
224  2.23  0.  0.
225  2.24  0.  0.
226  2.25  0.  0.
227  2.26  0.  0.
228  2.27  0.  0.
229  2.28  0.  0.
230  2.29  0.  0.
231  2.30  0.  0.
232  2.31  0.  0.
233  2.32  0.  0.
234  2.33  0.  0.
235  2.34  0.  0.
236  2.35  0.  0.
237  2.36  0.  0.
238  2.37  0.  0.
239  2.38  0.  0.
240  2.39  0.  0.
241  2.40  0.  0.
242  2.41  0.  0.
243  2.42  0.  0.
244  2.43  0.  0.
245  2.44  0.  0.
246  2.45  0.  0.
247  2.46  0.  0.
248  2.47  0.  0.
249  2.48  0.  0.
250  2.49  0.  0.
251  2.50  0.  0.
252  2.51  0.  0.
253  2.52  0.  0.
254  2.53  0.  0.
255  2.54  0.  0.
256  2.55  0.  0.
257  2.56  0.  0.
258  2.57  0.  0.
259  2.58  0.  0.
260  2.59  0.  0.
261  2.60  0.  0.
262  2.61  0.  0.
263  2.62  0.  0.
264  2.63  0.  0.
265  2.64  0.  0.
266  2.65  0.  0.
267  2.66  0.  0.
268  2.67  0.  0.
269  2.68  0.  0.
270  2.69  0.  0.
271  2.70  0.  0.
272  2.71  0.  0.
273  2.72  0.  0.
274  2.73  0.  0.
275  2.74  0.  0.
276  2.75  0.  0.
277  2.76  0.  0.
278  2.77  0.  0.
279  2.78  0.  0.
280  2.79  0.  0.
281  2.80  0.  0.
282  2.81  0.  0.
283  2.82  0.  0.
284  2.83  0.  0.
285  2.84  0.  0.
286  2.85  0.  0.
287  2.86  0.  0.
288  2.87  0.  0.
289  2.88  0.  0.
290  2.89  0.  0.
291  2.90  0.  0.
292  2.91  0.  0.
293  2.92  0.  0.
294  2.93  0.  0.
295  2.94  0.  0.
296  2.95  0.  0.
297  2.96  0.  0.
298  2.97  0.  0.
299  2.98  0.  0.
300  2.99  0.  0.
301  3.00  0.  0.
302  3.01  0.  0.
303  3.02  0.  0.
304  3.03  0.  0.
305  3.04  0.  0.
306  3.05  0.  0.
307  3.06  0.  0.
308  3.07  0.  0.
309  3.08  0.  0.
310  3.09  0.  0.
311  3.10  0.  0.
312  3.11  0.  0.
313  3.12  0.  0.
314  3.13  0.  0.
315  3.14  0.  0.
316  3.15  0.  0.
317  3.16  0.  0.
318  3.17  0.  0.
319  3.18  0.  0.
320  3.19  0.  0.
321  3.20  0.  0.
322  3.21  0.  0.
323  3.22  0.  0.
324  3.23  0.  0.
325  3.24  0.  0.
326  3.25  0.  0.
327  3.26  0.  0.
328  3.27  0.  0.
329  3.28  0.  0.
330  3.29  0.  0.
331  3.30  0.  0.
332  3.31  0.  0.
333  3.32  0.  0.
334  3.33  0.  0.
335  3.34  0.  0.
336  3.35  0.  0.
337  3.36  0.  0.
338  3.37  0.  0.
339  3.38  0.  0.
340  3.39  0.  0.
341  3.40  0.  0.
342  3.41  0.  0.
343  3.42  0.  0.
344  3.43  0.  0.
345  3.44  0.  0.
346  3.45  0.  0.
347  3.46  0.  0.
348  3.47  0.  0.
349  3.48  0.  0.
350  3.49  0.  0.
351  3.50  0.  0.
352  3.51  0.  0.
353  3.52  0.  0.
354  3.53  0.  0.
355  3.54  0.  0.
356  3.55  0.  0.
357  3.56  0.  0.
358  3.57  0.  0.
359  3.58  0.  0.
360  3.59  0.  0.
361  3.60  0.  0.
362  3.61  0.  0.
363  3.62  0.  0.
364  3.63  0.  0.
365  3.64  0.  0.
366  3.65  0.  0.
367  3.66  0.  0.
368  3.67  0.  0.
369  3.68  0.  0.
370  3.69  0.  0.
371  3.70  0.  0.
372  3.71  0.  0.
373  3.72  0.  0.
374  3.73  0.  0.
375  3.74  0.  0.
376  3.75  0.  0.
377  3.76  0.  0.
378  3.77  0.  0.
379  3.78  0.  0.
380  3.79  0.  0.
381  3.80  0.  0.
382  3.81  0.  0.
383  3.82  0.  0.
384  3.83  0.  0.
385  3.84  0.  0.
386  3.85  0.  0.
387  3.86  0.  0.
388  3.87  0.  0.
389  3.88  0.  0.
390  3.89  0.  0.
391  3.90  0.  0.
392  3.91  0.  0.
393  3.92  0.  0.
394  3.93  0.  0.
395  3.94  0.  0.
396  3.95  0.  0.
397  3.96  0.  0.
398  3.97  0.  0.
399  3.98  0.  0.
400  3.99  0.  0.
401  4.00  0.  0.
402  4.01  0.  0.
403  4.02  0.  0.
404  4.03  0.  0.
405  4.04  0.  0.
406  4.05  0.  0.
407  4.06  0.  0.
408  4.07  0.  0.
409  4.08  0.  0.
410  4.09  0.  0.
411  4.10  0.  0.
412  4.11  0.  0.
413  4.12  0.  0.
414  4.13  0.  0.
415  4.14  0.  0.
416  4.15  0.  0.
417  4.16  0.  0.
418  4.17  0.  0.
419  4.18  0.  0.
420  4.19  0.  0.
421  4.20  0.  0.
422  4.21  0.  0.
423  4.22  0.  0.
424  4.23  0.  0.
425  4.24  0.  0.
426  4.25  0.  0.
427  4.26  0.  0.
428  4.27  0.  0.
429  4.28  0.  0.
430  4.29  0.  0.
431  4.30  0.  0.
432  4.31  0.  0.
433  4.32  0.  0.
434  4.33  0.  0.
435  4.34  0.  0.
436  4.35  0.  0.
437  4.36  0.  0.
438  4.37  0.  0.
439  4.38  0.  0.
440  4.39  0.  0.
441  4.40  0.  0.
442  4.41  0.  0.
443  4.42  0.  0.
444  4.43  0.  0.
445  4.44  0.  0.
446  4.45  0.  0.
447  4.46  0.  0.
448  4.47  0.  0.
449  4.48  0.  0.
450  4.49  0.  0.
451  4.50  0.  0.
452  4.51  0.  0.
453  4.52  0.  0.
454  4.53  0.  0.
455  4.54  0.  0.
456  4.55  0.  0.
457  4.56  0.  0.
458  4.57  0.  0.
459  4.58  0.  0.
460  4.59  0.  0.
461  4.60  0.  0.
462  4.61  0.  0.
463  4.62  0.  0.
464  4.63  0.  0.
465  4.64  0.  0.
466  4.65  0.  0.
467  4.66  0.  0.
468  4.67  0.  0.
469  4.68  0.  0.
470  4.69  0.  0.
471  4.70  0.  0.
472  4.71  0.  0.
473  4.72  0.  0.
474  4.73  0.  0.
475  4.74  0.  0.
476  4.75  0.  0.
477  4.76  0.  0.
478  4.77  0.  0.
479  4.78  0.  0.
480  4.79  0.  0.
481  4.80  0.  0.
482  4.81  0.  0.
483  4.82  0.  0.
484  4.83  0.  0.
485  4.84  0.  0.
486  4.85  0.  0.
487  4.86  0.  0.
488  4.87  0.  0.
489  4.88  0.  0.
490  4.89  0.  0.
491  4.90  0.  0.
492  4.91  0.  0.
493  4.92  0.  0.
494  4.93  0.  0.
495  4.94  0.  0.
496  4.95  0.  0.
497  4.96  0.  0.
498  4.97  0.  0.
499  4.98  0.  0.
500  4.99  0.  0.
501  5.00  0.  0.
502  5.01  0.  0.
503  5.02  0.  0.
504  5.03  0.  0.
505  5.04  0.  0.
506  5.05  0.  0.
507  5.06  0.  0.
508  5.07  0.  0.
509  5.08  0.  0.
510  5.09  0.  0.
511  5.10  0.  0.
512  5.11  0.  0.
513  5.12  0.  0.
514  5.13  0.  0.
515  5.14  0.  0.
516  5.15  0.  0.
517  5.16  0.  0.
518  5.17  0.  0.
519  5.18  0.  0.
520  5.19  0.  0.
521  5.20  0.  0.
522  5.21  0.  0.
523  5.22  0.  0.
524  5.23  0.  0.
525  5.24  0.  0.
526  5.25  0.  0.
527  5.26  0.  0.
528  5.27  0.  0.
529  5.28  0.  0.
530  5.29  0.  0.
531  5.30  0.  0.
532  5.31  0.  0.
533  5.32  0.  0.
534  5.33  0.  0.
535  5.34  0.  0.
536  5.35  0.  0.
537  5.36  0.  0.
538  5.37  0.  0.
539  5.38  0.  0.
540  5.39  0.  0.
541  5.40  0.  0.
542  5.41  0.  0.
543  5.42  0.  0.
544  5.43  0.  0.
545  5.44  0.  0.
546  5.45  0.  0.
547  5.46  0.  0.
548  5.47  0.  0.
549  5.48  0.  0.
550  5.49  0.  0.
551  5.50  0.  0.
552  5.51  0.  0.
553  5.52  0.  0.
554  5.53  0.  0.
555  5.54  0.  0.
556  5.55  0.  0.
557  5.56  0.  0.
558  5.57  0.  0.
559  5.58  0.  0.
560  5.59  0.  0.
561  5.60  0.  0.
562  5.61  0.  0.
563  5.62  0.  0.
564  5.63  0.  0.
565  5.64  0.  0.
566  5.65  0.  0.
567  5.66  0.  0.
568  5.67  0.  0.
569  5.68  0.  0.
570  5.69  0.  0.
571  5.70  0.  0.
572  5.71  0.  0.
573  5.72  0.  0.
574  5.73  0.  0.
575  5.74  0.  0.
576  5.75  0.  0.
577  5.76  0.  0.
578  5.77  0.  0.
579  5.78  0.  0.
580  5.79  0.  0.
581  5.80  0.  0.
582  5.81  0.  0.
583  5.82  0.  0.
584  5.83  0.  0.
585  5.84  0.  0.
586  5.85  0.  0.
587  5.86  0.  0.
588  5.87  0.  0.
589  5.88  0.  0.
590  5.89  0.  0.
591  5.90  0.  0.
592  5.91  0.  0.
593  5.92  0.  0.
594  5.93  0.  0.
595  5.94  0.  0.
596  5.95  0.  0.
597  5.96  0.  0.
598  5.97  0.  0.
599  5.98  0.  0.
600  5.99  0.  0.
1                         6.7196261428593E+00  4.4819698302632E-01
1  0.0000000000000E+00  2.1409727948840E-09 -1.1594976243035E-08
2  1.0000000000000E-02  9.5841649291909E-04 -8.4216654184175E-04
3  2.0000000000000E-02  3.8290398684505E-03 -3.3522320730473E-03
4  3.0000000000000E-02  8.5980559996908E-03 -7.4812336021925E-03
5  4.0000000000000E-02  1.5242654017929E-02 -1.3148690277381E-02
6  5.0000000000000E-02  2.3731340919370E-02 -2.0244265786985E-02
7  6.0000000000000E-02  3.4024373289446E-02 -2.8630048597797E-02
8  7.0000000000000E-02  4.6074297627517E-02 -3.8143404011263E-02
9  8.0000000000000E-02  5.9826588613780E-02 -4.8600340423476E-02
10  9.0000000000000E-02  7.5220372730936E-02 -5.9799321703856E-02
11  1.0000000000000E-01  9.2189222974153E-02 -7.1525448467068E-02
12  1.1000000000000E-01  1.1066200898804E-01 -8.3554923383034E-02
13  1.2000000000000E-01  1.3056378588703E-01 -9.5659709703219E-02
14  1.3000000000000E-01  1.5181670426807E-01 -1.0761228799755E-01
15  1.4000000000000E-01  1.7434092352801E-01 -1.1919041378243E-01
16  1.5000000000000E-01  1.9805551056129E-01 -1.3018177832673E-01
17  1.6000000000000E-01  2.2287930623878E-01 -1.4038847646369E-01
18  1.7000000000000E-01  2.4873174275145E-01 -1.4963118868897E-01
19  1.8000000000000E-01  2.7553359593001E-01 -1.5775299012963E-01
20  1.9000000000000E-01  3.0320765800623E-01 -1.6462270602881E-01
21  2.0000000000000E-01  3.3167931793737E-01 -1.7013774207775E-01
22  2.1000000000000E-01  3.6087703834131E-01 -1.7422632807787E-01
23  2.2000000000000E-01  3.9073272024940E-01 -1.7684912484123E-01
24  2.3000000000000E-01  4.2118194923623E-01 -1.7800015672111E-01
25  2.4000000000000E-01  4.5216411898386E-01 -1.7770704546857E-01
26  2.5000000000000E-01  4.8362243093487E-01 -1.7603053498102E-01
27  2.6000000000000E-01  5.1550377133250E-01 -1.7306331067774E-01
28  2.7000000000000E-01  5.4775846958490E-01 -1.6892813143069E-01
29  2.8000000000000E-01  5.8033994447193E-01 -1.6377530592070E-01
30  2.9000000000000E-01  6.1320424718465E-01 -1.5777955870418E-01
31  3.0000000000000E-01  6.4630951249986E-01 -1.5113634390031E-01
32  3.1000000000000E-01  6.7961533149694E-01 -1.4405767598973E-01
33  3.2000000000000E-01  7.1308206107820E-01 -1.3676755751970E-01
34  3.3000000000000E-01  7.4667008711681E-01 -1.2949709232688E-01
35  3.4000000000000E-01  7.8033905929526E-01 -1.2247938003280E-01
36  3.5000000000000E-01  8.1404711658168E-01 -1.1594429288531E-01
37  3.6000000000000E-01  8.4775012280263E-01 -1.1011323939394E-01
38  3.7000000000000E-01  8.8140093189124E-01 -1.0519402055261E-01
39  3.8000000000000E-01  9.1494870211419E-01 -1.0137588371847E-01
40  3.9000000000000E-01  9.4833827790924E-01 -9.8824876412730E-02
41  4.0000000000000E-01  9.8150965690445E-01 -9.7679597465779E-02
42  4.1000000000000E-01  1.0143975582585E+00 -9.8047436118311E-02
43  4.2000000000000E-01  1.0469311066791E+00 -1.0000138102659E-01
44  4.3000000000000E-01  1.0790336443763E+00 -1.0357747075447E-01
45  4.4000000000000E-01  1.1106226808244E+00 -1.0877294545129E-01
46  4.5000000000000E-01  1.1416099875840E+00 -1.1554514623089E-01
47  4.6000000000000E-01  1.1719018426216E+00 -1.2381119452518E-01
48  4.7000000000000E-01  1.2013994256109E+00 -1.3344846865330E-01
49  4.8000000000000E-01  1.2299993626639E+00 -1.4429587930911E-01
50  4.9000000000000E-01  1.2575944158756E+00 -1.5615592992338E-01
51  5.0000000000000E-01  1.2840743100412E+00 -1.6879753220725E-01
52  5.1000000000000E-01  1.3093266859639E+00 -1.8195953193745E-01
53  5.2000000000000E-01  1.3332381669930E+00 -1.9535488550340E-01
54  5.3000000000000E-01  1.3556955228532E+00 -2.0867541419321E-01
55  5.4000000000000E-01  1.3765869125118E+00 -2.2159705092681E-01
56  5.5000000000000E-01  1.3958031858285E+00 -2.3378548340322E-01
57  5.6000000000000E-01  1.4132392220803E+00 -2.4490208864457E-01
58  5.7000000000000E-01  1.4287952821948E+00 -2.5461004688692E-01
59  5.8000000000000E-01  1.4423783506907E+00 -2.6258051784961E-01
60  5.9000000000000E-01  1.4539034429274E+00 -2.6849875973158E-01
61  6.0000000000000E-01  1.4632948533350E+00 -2.7207007091458E-01
62  6.1000000000000E-01  1.4704873208272E+00 -2.7302543633638E-01
63  6.2000000000000E-01  1.4754270885901E+00 -2.7112676482125E-01
64  6.3000000000000E-01  1.4780728368877E+00 -2.6617161026489E-01
65  6.4000000000000E-01  1.4783964693955E+00 -2.5799727836789E-01
66  6.5000000000000E-01  1.4763837358492E+00 -2.4648423144900E-01
67  6.6000000000000E-01  1.4720346764337E+00 -2.3155871656290E-01
68  6.7000000000000E-01  1.4653638762929E+00 -2.1319455647239E-01
69  6.8000000000000E-01  1.4564005217656E+00 -1.9141405872143E-01
70  6.9000000000000E-01  1.4451882533895E+00 -1.6628801483595E-01
71  7.0000000000000E-01  1.4317848142929E+00 -1.3793477922927E-01
72  7.1000000000000E-01  1.4162614962654E+00 -1.0651843537430E-01
73  7.2000000000000E-01  1.3987023894735E+00 -7.2246074881995E-02
74  7.3000000000000E-01  1.3792034454166E+00 -3.5364232940717E-02
75  7.4000000000000E-01  1.3578713662169E+00  3.8454592267249E-03
76  7.5000000000000E-01  1.3348223366487E+00  4.5071327984799E-02
77  7.6000000000000E-01  1.3101806183655E+00  8.7977325123422E-02
78  7.7000000000000E-01  1.2840770285191E+00  1.3220920468578E-01
79  7.8000000000000E-01  1.2566473273288E+00  1.7740109207288E-01
80  7.9000000000000E-01  1.2280305411000E+00  2.2318231935147E-01
81  8.0000000000000E-01  1.1983672486710E+00  2.6918439366884E-01
82  8.1000000000000E-01  1.1677978602451E+00  3.1504796116171E-01
83  8.2000000000000E-01  1.1364609180275E+00  3.6042962685534E-01
84  8.3000000000000E-01  1.1044914480101E+00  4.0500849186059E-01
85  8.4000000000000E-01  1.0720193916287E+00  4.4849227270684E-01
86  8.5000000000000E-01  1.0391681448653E+00  4.9062287387188E-01
87  8.6000000000000E-01  1.0060532306968E+00  5.3118129339882E-01
88  8.7000000000000E-01  9.7278112862208E-01  5.6999175279345E-01
89  8.8000000000000E-01  9.3944828237301E-01  6.0692495599056E-01
90  8.9000000000000E-01  9.0614030387136E-01  6.4190039783321E-01
91  9.0000000000000E-01  8.7293138808566E-01  6.7488765995899E-01
92  9.1000000000000E-01  8.3988394972859E-01  7.0590665092104E-01
93  9.2000000000000E-01  8.0704848878159E-01  7.3502676745238E-01
94  9.3000000000000E-01  7.7446368770966E-01  7.6236497464670E-01
95  9.4000000000000E-01  7.4215673900771E-01  7.8808282409444E-01
96  9.5000000000000E-01  7.1014389747723E-01  8.1238245029029E-01
97  9.6000000000000E-01  6.7843124744466E-01  8.3550160651421E-01
98  9.7000000000000E-01  6.4701567107582E-01  8.5770782149887E-01
99  9.8000000000000E-01  6.1588600008758E-01  8.7929177714457E-01
100  9.9000000000000E-01  5.8502432957950E-01  9.0056002496530E-01
101  1.0000000000000E+00  5.5440746946981E-01  9.2182717450849E-01
102  1.0100000000000E+00  5.2400850617938E-01  9.4340770038073E-01
103  1.0200000000000E+00  4.9379844481856E-01  9.6560752546056E-01
104  1.0300000000000E+00  4.6374790023966E-01  9.8871554614821E-01
105  1.0400000000000E+00  4.3382880395576E-01  1.0129952709225E+00
106  1.0500000000000E+00  4.0401609312372E-01  1.0386767458923E+00
107  1.0600000000000E+00  3.7428934756202E-01  1.0659489403638E+00
108  1.0700000000000E+00  3.4463434112873E-01  1.0949527616617E+00
109  1.0800000000000E+00  3.1504447472312E-01  1.1257748615274E+00
110  1.0900000000000E+00  2.8552205967713E-01  1.1584423864887E+00
111  1.1000000000000E+00  2.5607942236431E-01  1.1929188116550E+00
112  1.1100000000000E+00  2.2673980342382E-01  1.2291009817338E+00
113  1.1200000000000E+00  1.9753802806855E-01  1.2668174646936E+00
114  1.1300000000000E+00  1.6852092744496E-01  1.3058283028311E+00
115  1.1400000000000E+00  1.3974749492536E-01  1.3458262230721E+00
116  1.1500000000000E+00  1.1128876545349E-01  1.3864393436360E+00
117  1.1600000000000E+00  8.3227410618233E-02  1.4272353877515E+00
118  1.1700000000000E+00  5.5657046893003E-02  1.4677273875119E+00
119  1.1800000000000E+00  2.8681259458881E-02  1.5073808321165E+00
120  1.1900000000000E+00  2.4123490896933E-03  1.5456221854173E+00
121  1.2000000000000E+00 -2.3030185232553E-02  1.5818486675655E+00
122  1.2100000000000E+00 -4.7521410141629E-02  1.6154391655078E+00
123  1.2200000000000E+00 -7.0932945131559E-02  1.6457661067758E+00
124  1.2300000000000E+00 -9.3135145088516E-02  1.6722081010005E+00
125  1.2400000000000E+00 -1.1399944495738E-01  1.6941631239669E+00
126  1.2500000000000E+00 -1.3340082844481E-01  1.7110619896596E+00
127  1.2600000000000E+00 -1.5122037788044E-01  1.7223818271544E+00
128  1.2700000000000E+00 -1.6734785768163E-01  1.7276592510264E+00
129  1.2800000000000E+00 -1.8168427931826E-01  1.7265028862816E+00
130  1.2900000000000E+00 -1.9414439126244E-01  1.7186048817614E+00
131  1.3000000000000E+00 -2.0465903307190E-01  1.7037510191430E+00
132  1.3100000000000E+00 -2.1317728848737E-01  1.6818289980312E+00
133  1.3200000000000E+00 -2.1966836818939E-01  1.6528344510403E+00
134  1.3300000000000E+00 -2.2412314860349E-01  1.6168742158826E+00
135  1.3400000000000E+00 -2.2655528878167E-01  1.5741663638572E+00
136  1.3500000000000E+00 -2.2700184290367E-01  1.5250364557028E+00
137  1.3600000000000E+00 -2.2552328122519E-01  1.4699094659444E+00
138  1.3700000000000E+00 -2.2220282727141E-01  1.4092967851878E+00
139  1.3800000000000E+00 -2.1714501357334E-01  1.3437776747163E+00
140  1.3900000000000E+00 -2.1047335010394E-01  1.2739744793087E+00
141  1.4000000000000E+00 -2.0232702700708E-01  1.2005213801489E+00
142  1.4100000000000E+00 -1.9285640907329E-01  1.1240239885756E+00
143  1.4200000000000E+00 -1.8222013958699E-01  1.0450545763297E+00
144  1.4300000000000E+00 -1.7058699043456E-01  9.6421775293085E-01
145  1.4400000000000E+00 -1.5813587780545E-01  8.8217319411936E-01
146  1.4500000000000E+00 -1.4505393284921E-01  7.9962598281913E-01
147  1.4600000000000E+00 -1.3153448630063E-01  7.1731749965597E-01
148  1.4700000000000E+00 -1.1777489877892E-01  6.3601525384014E-01
149  1.4800000000000E+00 -1.0397428924293E-01  5.5650217714834E-01