Eu    ONCVPSP-4.0.1  r_core=   2.01108   1.60216   1.90567   1.60216
63.0000     17.0000      241206    zatom,zion,pspd
8      11   3     4   600     0    pspcod,pspxc,lmax,lloc,mmax,r2well
5.99000000  4.00000000  0.00000000    rchrg fchrg qchrg
2     2     2     2     0    nproj
1     1           extension_switch
0                         6.7696354937843E+00  5.0546257457509E-01
1  0.0000000000000E+00  8.0697892812509E-11 -3.4191669634476E-10
2  1.0000000000000E-02  4.0764359158389E-02 -3.8774407682025E-03
3  2.0000000000000E-02  8.1507916436999E-02 -7.7960670036907E-03
4  3.0000000000000E-02  1.2220969515794E-01 -1.1796332854900E-02
5  4.0000000000000E-02  1.6284837116111E-01 -1.5917238184569E-02
6  5.0000000000000E-02  2.0340210432755E-01 -2.0195622219256E-02
7  6.0000000000000E-02  2.4384837636240E-01 -2.4665481905116E-02
8  7.0000000000000E-02  2.8416383682854E-01 -2.9357322800350E-02
9  8.0000000000000E-02  3.2432415934126E-01 -3.4297549992793E-02
10  9.0000000000000E-02  3.6430390973475E-01 -3.9507906110106E-02
11  1.0000000000000E-01  4.0407642789421E-01 -4.5004962994141E-02
12  1.1000000000000E-01  4.4361372481298E-01 -5.0799673045417E-02
13  1.2000000000000E-01  4.8288639628542E-01 -5.6896985613574E-02
14  1.3000000000000E-01  5.2186355448213E-01 -6.3295533121838E-02
15  1.4000000000000E-01  5.6051277847901E-01 -6.9987390874666E-02
16  1.5000000000000E-01  5.9880008462449E-01 -7.6957913715297E-02
17  1.6000000000000E-01  6.3668991743401E-01 -8.4185651881726E-02
18  1.7000000000000E-01  6.7414516149795E-01 -9.1642347564209E-02
19  1.8000000000000E-01  7.1112717468116E-01 -9.9293012802966E-02
20  1.9000000000000E-01  7.4759584268115E-01 -1.0709608849033E-01
21  2.0000000000000E-01  7.8350965479964E-01 -1.1500368336616E-01
22  2.1000000000000E-01  8.1882580057021E-01 -1.2296189102767E-01
23  2.2000000000000E-01  8.5350028667675E-01 -1.3091118212384E-01
24  2.3000000000000E-01  8.8748807339272E-01 -1.3878686807966E-01
25  2.4000000000000E-01  9.2074322957503E-01 -1.4651963190408E-01
26  2.5000000000000E-01  9.5321910505742E-01 -1.5403612088731E-01
27  2.6000000000000E-01  9.8486851911089E-01 -1.6125959529467E-01
28  2.7000000000000E-01  1.0156439634734E+00 -1.6811062652443E-01
29  2.8000000000000E-01  1.0454978182993E+00 -1.7450783762088E-01
30  2.9000000000000E-01  1.0743825792430E+00 -1.8036867853009E-01
31  3.0000000000000E-01  1.1022510937723E+00 -1.8561022805744E-01
32  3.1000000000000E-01  1.1290568047059E+00 -1.9015001414034E-01
33  3.2000000000000E-01  1.1547539988849E+00 -1.9390684378824E-01
34  3.3000000000000E-01  1.1792980588302E+00 -1.9680163387075E-01
35  3.4000000000000E-01  1.2026457151896E+00 -1.9875823385418E-01
36  3.5000000000000E-01  1.2247552977629E+00 -1.9970423159836E-01
37  3.6000000000000E-01  1.2455869828892E+00 -1.9957173343164E-01
38  3.7000000000000E-01  1.2651030350034E+00 -1.9829810991966E-01
39  3.8000000000000E-01  1.2832680402123E+00 -1.9582669903320E-01
40  3.9000000000000E-01  1.3000491297996E+00 -1.9210745879887E-01
41  4.0000000000000E-01  1.3154161916575E+00 -1.8709756198125E-01
42  4.1000000000000E-01  1.3293420677407E+00 -1.8076192589111E-01
43  4.2000000000000E-01  1.3418027357598E+00 -1.7307367103715E-01
44  4.3000000000000E-01  1.3527774734721E+00 -1.6401450303308E-01
45  4.4000000000000E-01  1.3622490040780E+00 -1.5357501292940E-01
46  4.5000000000000E-01  1.3702036213998E+00 -1.4175489195469E-01
47  4.6000000000000E-01  1.3766312937048E+00 -1.2856305751490E-01
48  4.7000000000000E-01  1.3815257452205E+00 -1.1401768820397E-01
49  4.8000000000000E-01  1.3848845145956E+00 -9.8146166514521E-02
50  4.9000000000000E-01  1.3867089897674E+00 -8.0984928895071E-02
51  5.0000000000000E-01  1.3870044189091E+00 -6.2579223770554E-02
52  5.1000000000000E-01  1.3857798973485E+00 -4.2982779114325E-02
53  5.2000000000000E-01  1.3830483305650E+00 -2.2257382124542E-02
54  5.3000000000000E-01  1.3788263735914E+00 -4.7237450392637E-04
55  5.4000000000000E-01  1.3731343473555E+00  2.2295932240164E-02
56  5.5000000000000E-01  1.3659961327077E+00  4.5964916177123E-02
57  5.6000000000000E-01  1.3574390430784E+00  7.0446372885235E-02
58  5.7000000000000E-01  1.3474936768990E+00  9.5647305026107E-02
59  5.8000000000000E-01  1.3361937511011E+00  1.2147076594115E-01
60  5.9000000000000E-01  1.3235759171705E+00  1.4781674900997E-01
61  6.0000000000000E-01  1.3096795613872E+00  1.7458311395154E-01
62  6.1000000000000E-01  1.2945465910130E+00  2.0166654077595E-01
63  6.2000000000000E-01  1.2782212083083E+00  2.2896350171334E-01
64  6.3000000000000E-01  1.2607496743533E+00  2.5637124116343E-01
65  6.4000000000000E-01  1.2421800647321E+00  2.8378875352466E-01
66  6.5000000000000E-01  1.2225620191905E+00  3.1111774868246E-01
67  6.6000000000000E-01  1.2019464874177E+00  3.3826359496023E-01
68  6.7000000000000E-01  1.1803854731178E+00  3.6513622946622E-01
69  6.8000000000000E-01  1.1579317785280E+00  3.9165102600478E-01
70  6.9000000000000E-01  1.1346387515171E+00  4.1772961105681E-01
71  7.0000000000000E-01  1.1105600373463E+00  4.4330061877229E-01
72  7.1000000000000E-01  1.0857493371096E+00  4.6830037645155E-01
73  7.2000000000000E-01  1.0602601747810E+00  4.9267351261650E-01
74  7.3000000000000E-01  1.0341456746907E+00  5.1637348048318E-01
75  7.4000000000000E-01  1.0074583511335E+00  5.3936299043560E-01
76  7.5000000000000E-01  9.8024991166716E-01  5.6161434595966E-01
77  7.6000000000000E-01  9.5257107551461E-01  5.8310967841682E-01
78  7.7000000000000E-01  9.2447140831354E-01  6.0384107701096E-01
79  7.8000000000000E-01  8.9599917428474E-01  6.2381061131815E-01
80  7.9000000000000E-01  8.6720120670707E-01  6.4303024479835E-01
81  8.0000000000000E-01  8.3812279739677E-01  6.6152163877853E-01
82  8.1000000000000E-01  8.0880760569539E-01  6.7931584747914E-01
83  8.2000000000000E-01  7.7929758727406E-01  6.9645290573666E-01
84  8.3000000000000E-01  7.4963294286554E-01  7.1298131214651E-01
85  8.4000000000000E-01  7.1985208684134E-01  7.2895741139859E-01
86  8.5000000000000E-01  6.8999163536060E-01  7.4444468059408E-01
87  8.6000000000000E-01  6.6008641363287E-01  7.5951292530574E-01
88  8.7000000000000E-01  6.3016948166063E-01  7.7423739206473E-01
89  8.8000000000000E-01  6.0027217765962E-01  7.8869780481778E-01
90  8.9000000000000E-01  5.7042417819943E-01  8.0297733368764E-01
91  9.0000000000000E-01  5.4065357396237E-01  8.1716150508551E-01
92  9.1000000000000E-01  5.1098695988904E-01  8.3133706285298E-01
93  9.2000000000000E-01  4.8144953836292E-01  8.4559079065474E-01
94  9.3000000000000E-01  4.5206523398635E-01  8.6000830629215E-01
95  9.4000000000000E-01  4.2285681841566E-01  8.7467283896194E-01
96  9.5000000000000E-01  3.9384604365512E-01  8.8966400074074E-01
97  9.6000000000000E-01  3.6505378215747E-01  9.0505656373366E-01
98  9.7000000000000E-01  3.3650017204267E-01  9.2091925438545E-01
99  9.8000000000000E-01  3.0820476572679E-01  9.3731357641596E-01
100  9.9000000000000E-01  2.8018668024748E-01  9.5429267371235E-01
101  1.0000000000000E+00  2.5246474758194E-01  9.7190024428994E-01
102  1.0100000000000E+00  2.2505766327562E-01  9.9016951612972E-01
103  1.0200000000000E+00  1.9798413173453E-01  1.0091222953158E+00
104  1.0300000000000E+00  1.7126300657954E-01  1.0287680964390E+00
105  1.0400000000000E+00  1.4491342451544E-01  1.0491033647110E+00
106  1.0500000000000E+00  1.1895493123053E-01  1.0701107986502E+00
107  1.0600000000000E+00  9.3407597911079E-02  1.0917587815707E+00
108  1.0700000000000E+00  6.8292127028659E-02  1.1140009294307E+00
109  1.0800000000000E+00  4.3629946135364E-02  1.1367757618881E+00
110  1.0900000000000E+00  1.9443288479913E-02  1.1600065026782E+00
111  1.1000000000000E+00 -4.2447406632028E-03  1.1836010146710E+00
112  1.1100000000000E+00 -2.7410112981879E-02  1.2074518742047E+00
113  1.1200000000000E+00 -5.0027842386463E-02  1.2314365885172E+00
114  1.1300000000000E+00 -7.2071967423434E-02  1.2554179593264E+00
115  1.1400000000000E+00 -9.3515551655219E-02  1.2792445948445E+00
116  1.1500000000000E+00 -1.1433070275312E-01  1.3027515717464E+00
117  1.1600000000000E+00 -1.3448861098863E-01  1.3257612478627E+00
118  1.1700000000000E+00 -1.5395960775039E-01  1.3480842256213E+00
119  1.1800000000000E+00 -1.7271324465820E-01  1.3695204655230E+00
120  1.1900000000000E+00 -1.9071839379204E-01  1.3898605482013E+00
121  1.2000000000000E+00 -2.0794336949974E-01  1.4088870828778E+00
122  1.2100000000000E+00 -2.2435607219153E-01  1.4263762592761E+00
123  1.2200000000000E+00 -2.3992415446934E-01  1.4420995392885E+00
124  1.2300000000000E+00 -2.5461520987123E-01  1.4558254838906E+00
125  1.2400000000000E+00 -2.6839698443370E-01  1.4673217099543E+00
126  1.2500000000000E+00 -2.8123761118199E-01  1.4763569707045E+00
127  1.2600000000000E+00 -2.9310586754798E-01  1.4827033525820E+00
128  1.2700000000000E+00 -3.0397145558158E-01  1.4861385801936E+00
129  1.2800000000000E+00 -3.1380530465882E-01  1.4864484198289E+00
130  1.2900000000000E+00 -3.2257989619504E-01  1.4834291706788E+00
131  1.3000000000000E+00 -3.3026960963646E-01  1.4768902313796E+00
132  1.3100000000000E+00 -3.3685108872244E-01  1.4666567277947E+00
133  1.3200000000000E+00 -3.4230362667880E-01  1.4525721860125E+00
134  1.3300000000000E+00 -3.4660956861228E-01  1.4345012323583E+00
135  1.3400000000000E+00 -3.4975472891780E-01  1.4123322997338E+00
136  1.3500000000000E+00 -3.5172882098110E-01  1.3859803168101E+00
137  1.3600000000000E+00 -3.5252589584961E-01  1.3553893534554E+00
138  1.3700000000000E+00 -3.5214478584503E-01  1.3205351922431E+00
139  1.3800000000000E+00 -3.5058954829562E-01  1.2814277919226E+00
140  1.3900000000000E+00 -3.4786990366752E-01  1.2381136043139E+00
141  1.4000000000000E+00 -3.4400166136113E-01  1.1906777011633E+00
142  1.4100000000000E+00 -3.3900712530846E-01  1.1392456620416E+00
143  1.4200000000000E+00 -3.3291547023851E-01  1.0839851682983E+00
144  1.4300000000000E+00 -3.2576307807943E-01  1.0251072414303E+00
145  1.4400000000000E+00 -3.1759382241480E-01  9.6286705687884E-01
146  1.4500000000000E+00 -3.0845928719888E-01  8.9756425619657E-01
147  1.4600000000000E+00 -2.9841890407124E-01  8.2954267176167E-01
148  1.4700000000000E+00 -2.8753999054450E-01  7.5918936852976E-01
149  1.4800000000000E+00 -2.7589766910852E-01  6.8693289687857E-01
150  1.4900000000000E+00 -2.6357464485182E-01  6.1324063919061E-01
151  1.5000000000000E+00 -2.5066081655373E-01  5.3861512046286E-01
152  1.5100000000000E+00 -2.3725269333185E-01  4.6358913985377E-01
153  1.5200000000000E+00 -2.2345258582001E-01  3.8871956558000E-01
154  1.5300000000000E+00 -2.0936753751840E-01  3.1457962003263E-01
155  1.5400000000000E+00 -1.9510795832891E-01  2.4174946506316E-01
156  1.5500000000000E+00 -1.8078591841896E-01  1.7080487933378E-01
157  1.5600000000000E+00 -1.6651305638155E-01  1.0230380013731E-01
158  1.5700000000000E+00 -1.5239805118459E-01  3.6770481186603E-02
159  1.5800000000000E+00 -1.3854360099954E-01 -2.5323015710551E-02
160  1.5900000000000E+00 -1.2504284980739E-01 -8.3578279081246E-02
161  1.6000000000000E+00 -1.1197526595362E-01 -1.3769480149747E-01
162  1.6100000000000E+00 -9.9401823950079E-02 -1.8749787715715E-01
163  1.6200000000000E+00 -8.7367873950519E-02 -2.3291235794545E-01
164  1.6300000000000E+00 -7.5911754621522E-02 -2.7389924749660E-01
165  1.6400000000000E+00 -6.5066829179451E-02 -3.1044071776028E-01
166  1.6500000000000E+00 -5.4861167783821E-02 -3.4254192403189E-01
167  1.6600000000000E+00 -4.5317496579165E-02 -3.7023102076325E-01
168  1.6700000000000E+00 -3.6453146266013E-02 -3.9355928565370E-01
169  1.6800000000000E+00 -2.8280042032931E-02 -4.1260105162997E-01
170  1.6900000000000E+00 -2.0804735282995E-02 -4.2745344546116E-01
171  1.7000000000000E+00 -1.4028476591508E-02 -4.3823593709037E-01
172  1.7100000000000E+00 -7.9473296703160E-03 -4.4508970055105E-01
173  1.7200000000000E+00 -2.5523251118367E-03 -4.4817679308417E-01
174  1.7300000000000E+00  2.1703445628148E-03 -4.4767914110114E-01
175  1.7400000000000E+00  6.2390963092726E-03 -4.4379737967753E-01
176  1.7500000000000E+00  9.6766868956816E-03 -4.3674949523966E-01
177  1.7600000000000E+00  1.2509912093028E-02 -4.2676933068652E-01
178  1.7700000000000E+00  1.4769273769681E-02 -4.1410494306473E-01
179  1.7800000000000E+00  1.6488617555028E-02 -3.9901682624856E-01
180  1.7900000000000E+00  1.7704744759138E-02 -3.8177601708407E-01
181  1.8000000000000E+00  1.8457001442859E-02 -3.6266209805778E-01
182  1.8100000000000E+00  1.8786848123680E-02 -3.4196111293270E-01
183  1.8200000000000E+00  1.8737413747180E-02 -3.1996341239542E-01
184  1.8300000000000E+00  1.8353037713468E-02 -2.9696144751389E-01
185  1.8400000000000E+00  1.7678803867437E-02 -2.7324752936148E-01
186  1.8500000000000E+00  1.6760070470811E-02 -2.4911157370290E-01
187  1.8600000000000E+00  1.5642000199207E-02 -2.2483884972295E-01
188  1.8700000000000E+00  1.4369094250260E-02 -2.0070775201439E-01
189  1.8800000000000E+00  1.2984736477266E-02 -1.7698762184590E-01
190  1.8900000000000E+00  1.1530730894846E-02 -1.5393656004049E-01
191  1.9000000000000E+00  1.0046929961627E-02 -1.3179959176929E-01
192  1.9100000000000E+00  8.5706846105221E-03 -1.1080622215058E-01
193  1.9200000000000E+00  7.1347882441846E-03 -9.1162293235134E-02
194  1.9300000000000E+00  5.7689359271530E-03 -7.3054964806033E-02
195  1.9400000000000E+00  4.5026153799433E-03 -5.6663278709610E-02
196  1.9500000000000E+00  3.3611590625527E-03 -4.2143359202483E-02
197  1.9600000000000E+00  2.3657359922066E-03 -2.9628066682705E-02
198  1.9700000000000E+00  1.5330801941790E-03 -1.9225745534834E-02
199  1.9800000000000E+00  8.7557855015566E-04 -1.1022799272361E-02
200  1.9900000000000E+00  3.9878688919282E-04 -5.0522824254179E-03
201  2.0000000000000E+00  1.1016407713089E-04 -1.4085057360155E-03
202  2.0100000000000E+00  3.7685366319839E-06 -4.8748043791325E-05
203  2.0200000000000E+00 -3.4338060731660E-06  4.4581394885709E-05
204  2.0300000000000E+00  1.7823869600785E-06 -2.2945456189619E-05
205  2.04 -0.  0.
206  2.05 -0.  0.
207  2.06  0.  0.
208  2.07  0.  0.
209  2.08  0.  0.
210  2.09  0.  0.
211  2.10  0.  0.
212  2.11  0.  0.
213  2.12  0.  0.
214  2.13  0.  0.
215  2.14  0.  0.
216  2.15  0.  0.
217  2.16  0.  0.
218  2.17  0.  0.
219  2.18  0.  0.
220  2.19  0.  0.
221  2.20  0.  0.
222  2.21  0.  0.
223  2.22  0.  0.
224  2.23  0.  0.
225  2.24  0.  0.
226  2.25  0.  0.
227  2.26  0.  0.
228  2.27  0.  0.
229  2.28  0.  0.
230  2.29  0.  0.
231  2.30  0.  0.
232  2.31  0.  0.
233  2.32  0.  0.
234  2.33  0.  0.
235  2.34  0.  0.
236  2.35  0.  0.
237  2.36  0.  0.
238  2.37  0.  0.
239  2.38  0.  0.
240  2.39  0.  0.
241  2.40  0.  0.
242  2.41  0.  0.
243  2.42  0.  0.
244  2.43  0.  0.
245  2.44  0.  0.
246  2.45  0.  0.
247  2.46  0.  0.
248  2.47  0.  0.
249  2.48  0.  0.
250  2.49  0.  0.
251  2.50  0.  0.
252  2.51  0.  0.
253  2.52  0.  0.
254  2.53  0.  0.
255  2.54  0.  0.
256  2.55  0.  0.
257  2.56  0.  0.
258  2.57  0.  0.
259  2.58  0.  0.
260  2.59  0.  0.
261  2.60  0.  0.
262  2.61  0.  0.
263  2.62  0.  0.
264  2.63  0.  0.
265  2.64  0.  0.
266  2.65  0.  0.
267  2.66  0.  0.
268  2.67  0.  0.
269  2.68  0.  0.
270  2.69  0.  0.
271  2.70  0.  0.
272  2.71  0.  0.
273  2.72  0.  0.
274  2.73  0.  0.
275  2.74  0.  0.
276  2.75  0.  0.
277  2.76  0.  0.
278  2.77  0.  0.
279  2.78  0.  0.
280  2.79  0.  0.
281  2.80  0.  0.
282  2.81  0.  0.
283  2.82  0.  0.
284  2.83  0.  0.
285  2.84  0.  0.
286  2.85  0.  0.
287  2.86  0.  0.
288  2.87  0.  0.
289  2.88  0.  0.
290  2.89  0.  0.
291  2.90  0.  0.
292  2.91  0.  0.
293  2.92  0.  0.
294  2.93  0.  0.
295  2.94  0.  0.
296  2.95  0.  0.
297  2.96  0.  0.
298  2.97  0.  0.
299  2.98  0.  0.
300  2.99  0.  0.
301  3.00  0.  0.
302  3.01  0.  0.
303  3.02  0.  0.
304  3.03  0.  0.
305  3.04  0.  0.
306  3.05  0.  0.
307  3.06  0.  0.
308  3.07  0.  0.
309  3.08  0.  0.
310  3.09  0.  0.
311  3.10  0.  0.
312  3.11  0.  0.
313  3.12  0.  0.
314  3.13  0.  0.
315  3.14  0.  0.
316  3.15  0.  0.
317  3.16  0.  0.
318  3.17  0.  0.
319  3.18  0.  0.
320  3.19  0.  0.
321  3.20  0.  0.
322  3.21  0.  0.
323  3.22  0.  0.
324  3.23  0.  0.
325  3.24  0.  0.
326  3.25  0.  0.
327  3.26  0.  0.
328  3.27  0.  0.
329  3.28  0.  0.
330  3.29  0.  0.
331  3.30  0.  0.
332  3.31  0.  0.
333  3.32  0.  0.
334  3.33  0.  0.
335  3.34  0.  0.
336  3.35  0.  0.
337  3.36  0.  0.
338  3.37  0.  0.
339  3.38  0.  0.
340  3.39  0.  0.
341  3.40  0.  0.
342  3.41  0.  0.
343  3.42  0.  0.
344  3.43  0.  0.
345  3.44  0.  0.
346  3.45  0.  0.
347  3.46  0.  0.
348  3.47  0.  0.
349  3.48  0.  0.
350  3.49  0.  0.
351  3.50  0.  0.
352  3.51  0.  0.
353  3.52  0.  0.
354  3.53  0.  0.
355  3.54  0.  0.
356  3.55  0.  0.
357  3.56  0.  0.
358  3.57  0.  0.
359  3.58  0.  0.
360  3.59  0.  0.
361  3.60  0.  0.
362  3.61  0.  0.
363  3.62  0.  0.
364  3.63  0.  0.
365  3.64  0.  0.
366  3.65  0.  0.
367  3.66  0.  0.
368  3.67  0.  0.
369  3.68  0.  0.
370  3.69  0.  0.
371  3.70  0.  0.
372  3.71  0.  0.
373  3.72  0.  0.
374  3.73  0.  0.
375  3.74  0.  0.
376  3.75  0.  0.
377  3.76  0.  0.
378  3.77  0.  0.
379  3.78  0.  0.
380  3.79  0.  0.
381  3.80  0.  0.
382  3.81  0.  0.
383  3.82  0.  0.
384  3.83  0.  0.
385  3.84  0.  0.
386  3.85  0.  0.
387  3.86  0.  0.
388  3.87  0.  0.
389  3.88  0.  0.
390  3.89  0.  0.
391  3.90  0.  0.
392  3.91  0.  0.
393  3.92  0.  0.
394  3.93  0.  0.
395  3.94  0.  0.
396  3.95  0.  0.
397  3.96  0.  0.
398  3.97  0.  0.
399  3.98  0.  0.
400  3.99  0.  0.
401  4.00  0.  0.
402  4.01  0.  0.
403  4.02  0.  0.
404  4.03  0.  0.
405  4.04  0.  0.
406  4.05  0.  0.
407  4.06  0.  0.
408  4.07  0.  0.
409  4.08  0.  0.
410  4.09  0.  0.
411  4.10  0.  0.
412  4.11  0.  0.
413  4.12  0.  0.
414  4.13  0.  0.
415  4.14  0.  0.
416  4.15  0.  0.
417  4.16  0.  0.
418  4.17  0.  0.
419  4.18  0.  0.
420  4.19  0.  0.
421  4.20  0.  0.
422  4.21  0.  0.
423  4.22  0.  0.
424  4.23  0.  0.
425  4.24  0.  0.
426  4.25  0.  0.
427  4.26  0.  0.
428  4.27  0.  0.
429  4.28  0.  0.
430  4.29  0.  0.
431  4.30  0.  0.
432  4.31  0.  0.
433  4.32  0.  0.
434  4.33  0.  0.
435  4.34  0.  0.
436  4.35  0.  0.
437  4.36  0.  0.
438  4.37  0.  0.
439  4.38  0.  0.
440  4.39  0.  0.
441  4.40  0.  0.
442  4.41  0.  0.
443  4.42  0.  0.
444  4.43  0.  0.
445  4.44  0.  0.
446  4.45  0.  0.
447  4.46  0.  0.
448  4.47  0.  0.
449  4.48  0.  0.
450  4.49  0.  0.
451  4.50  0.  0.
452  4.51  0.  0.
453  4.52  0.  0.
454  4.53  0.  0.
455  4.54  0.  0.
456  4.55  0.  0.
457  4.56  0.  0.
458  4.57  0.  0.
459  4.58  0.  0.
460  4.59  0.  0.
461  4.60  0.  0.
462  4.61  0.  0.
463  4.62  0.  0.
464  4.63  0.  0.
465  4.64  0.  0.
466  4.65  0.  0.
467  4.66  0.  0.
468  4.67  0.  0.
469  4.68  0.  0.
470  4.69  0.  0.
471  4.70  0.  0.
472  4.71  0.  0.
473  4.72  0.  0.
474  4.73  0.  0.
475  4.74  0.  0.
476  4.75  0.  0.
477  4.76  0.  0.
478  4.77  0.  0.
479  4.78  0.  0.
480  4.79  0.  0.
481  4.80  0.  0.
482  4.81  0.  0.
483  4.82  0.  0.
484  4.83  0.  0.
485  4.84  0.  0.
486  4.85  0.  0.
487  4.86  0.  0.
488  4.87  0.  0.
489  4.88  0.  0.
490  4.89  0.  0.
491  4.90  0.  0.
492  4.91  0.  0.
493  4.92  0.  0.
494  4.93  0.  0.
495  4.94  0.  0.
496  4.95  0.  0.
497  4.96  0.  0.
498  4.97  0.  0.
499  4.98  0.  0.
500  4.99  0.  0.
501  5.00  0.  0.
502  5.01  0.  0.
503  5.02  0.  0.
504  5.03  0.  0.
505  5.04  0.  0.
506  5.05  0.  0.
507  5.06  0.  0.
508  5.07  0.  0.
509  5.08  0.  0.
510  5.09  0.  0.
511  5.10  0.  0.
512  5.11  0.  0.
513  5.12  0.  0.
514  5.13  0.  0.
515  5.14  0.  0.
516  5.15  0.  0.
517  5.16  0.  0.
518  5.17  0.  0.
519  5.18  0.  0.
520  5.19  0.  0.
521  5.20  0.  0.
522  5.21  0.  0.
523  5.22  0.  0.
524  5.23  0.  0.
525  5.24  0.  0.
526  5.25  0.  0.
527  5.26  0.  0.
528  5.27  0.  0.
529  5.28  0.  0.
530  5.29  0.  0.
531  5.30  0.  0.
532  5.31  0.  0.
533  5.32  0.  0.
534  5.33  0.  0.
535  5.34  0.  0.
536  5.35  0.  0.
537  5.36  0.  0.
538  5.37  0.  0.
539  5.38  0.  0.
540  5.39  0.  0.
541  5.40  0.  0.
542  5.41  0.  0.
543  5.42  0.  0.
544  5.43  0.  0.
545  5.44  0.  0.
546  5.45  0.  0.
547  5.46  0.  0.
548  5.47  0.  0.
549  5.48  0.  0.
550  5.49  0.  0.
551  5.50  0.  0.
552  5.51  0.  0.
553  5.52  0.  0.
554  5.53  0.  0.
555  5.54  0.  0.
556  5.55  0.  0.
557  5.56  0.  0.
558  5.57  0.  0.
559  5.58  0.  0.
560  5.59  0.  0.
561  5.60  0.  0.
562  5.61  0.  0.
563  5.62  0.  0.
564  5.63  0.  0.
565  5.64  0.  0.
566  5.65  0.  0.
567  5.66  0.  0.
568  5.67  0.  0.
569  5.68  0.  0.
570  5.69  0.  0.
571  5.70  0.  0.
572  5.71  0.  0.
573  5.72  0.  0.
574  5.73  0.  0.
575  5.74  0.  0.
576  5.75  0.  0.
577  5.76  0.  0.
578  5.77  0.  0.
579  5.78  0.  0.
580  5.79  0.  0.
581  5.80  0.  0.
582  5.81  0.  0.
583  5.82  0.  0.
584  5.83  0.  0.
585  5.84  0.  0.
586  5.85  0.  0.
587  5.86  0.  0.
588  5.87  0.  0.
589  5.88  0.  0.
590  5.89  0.  0.
591  5.90  0.  0.
592  5.91  0.  0.
593  5.92  0.  0.
594  5.93  0.  0.
595  5.94  0.  0.
596  5.95  0.  0.
597  5.96  0.  0.
598  5.97  0.  0.
599  5.98  0.  0.
600  5.99  0.  0.
1                         4.9457431818146E+00  2.8606631428447E-01
1  0.0000000000000E+00  7.9032614203056E-09 -7.5200273119691E-08
2  1.0000000000000E-02  1.4072509395497E-03 -5.0970501501304E-03
3  2.0000000000000E-02  5.6152120754495E-03 -2.0272710403273E-02
4  3.0000000000000E-02  1.2582749862546E-02 -4.5182808189432E-02
5  4.0000000000000E-02  2.2242108756403E-02 -7.9261338535747E-02
6  5.0000000000000E-02  3.4500095586980E-02 -1.2173173453111E-01
7  6.0000000000000E-02  4.9239705654996E-02 -1.7162234195044E-01
8  7.0000000000000E-02  6.6322159260938E-02 -2.2778580090117E-01
9  8.0000000000000E-02  8.5589309473413E-02 -2.8892196215419E-01
10  9.0000000000000E-02  1.0686637479108E-01 -3.5360389764604E-01
11  1.0000000000000E-01  1.2996494408785E-01 -4.2030650477438E-01
12  1.1000000000000E-01  1.5468619597542E-01 -4.8743715369528E-01
13  1.2000000000000E-01  1.8082427057195E-01 -5.5336778682106E-01
14  1.3000000000000E-01  2.0816972871142E-01 -6.1646785088157E-01
15  1.4000000000000E-01  2.3651303192328E-01 -6.7513742480249E-01
16  1.5000000000000E-01  2.6564797609074E-01 -7.2783990161202E-01
17  1.6000000000000E-01  2.9537501256825E-01 -7.7313358972003E-01
18  1.7000000000000E-01  3.2550439269084E-01 -8.0970161811050E-01
19  1.8000000000000E-01  3.5585907500026E-01 -8.3637956090127E-01
20  1.9000000000000E-01  3.8627733908305E-01 -8.5218023879695E-01
21  2.0000000000000E-01  4.1661505557990E-01 -8.5631520741656E-01
22  2.1000000000000E-01  4.4674756857594E-01 -8.4821250435029E-01
23  2.2000000000000E-01  4.7657115409497E-01 -8.2753029694250E-01
24  2.3000000000000E-01  5.0600402665431E-01 -7.9416614990914E-01
25  2.4000000000000E-01  5.3498687463532E-01 -7.4826171453690E-01
26  2.5000000000000E-01  5.6348291442097E-01 -6.9020272783976E-01
27  2.6000000000000E-01  5.9147746267111E-01 -6.2061429903962E-01
28  2.7000000000000E-01  6.1897703556828E-01 -5.4035155042501E-01
29  2.8000000000000E-01  6.4600799319108E-01 -4.5048576833596E-01
30  2.9000000000000E-01  6.7261475617879E-01 -3.5228630605230E-01
31  3.0000000000000E-01  6.9885763036686E-01 -2.4719856209767E-01
32  3.1000000000000E-01  7.2481028293221E-01 -1.3681843336308E-01
33  3.2000000000000E-01  7.5055692063725E-01 -2.2863711051835E-02
34  3.3000000000000E-01  7.7618922686401E-01  9.2857052558587E-02
35  3.4000000000000E-01  8.0180311916251E-01  2.0847762831317E-01
36  3.5000000000000E-01  8.2749539290103E-01  3.2210852762093E-01
37  3.6000000000000E-01  8.5336031921926E-01  4.3187210745973E-01
38  3.7000000000000E-01  8.7948626679370E-01  5.3593770138191E-01
39  3.8000000000000E-01  9.0595241689558E-01  6.3255611150472E-01
40  3.9000000000000E-01  9.3282563985020E-01  7.2009280555486E-01
41  4.0000000000000E-01  9.6015759831058E-01  7.9705918453501E-01
42  4.1000000000000E-01  9.8798213878385E-01  8.6214132013184E-01
43  4.2000000000000E-01  1.0163130276641E+00  9.1422560600825E-01
44  4.3000000000000E-01  1.0451420817225E+00  9.5242082280918E-01
45  4.4000000000000E-01  1.0744377357011E+00  9.7607618205884E-01
46  4.5000000000000E-01  1.1041440814794E+00  9.8479498794331E-01
47  4.6000000000000E-01  1.1341804043911E+00  9.7844363690240E-01
48  4.7000000000000E-01  1.1644412328192E+00  9.5715576150535E-01
49  4.8000000000000E-01  1.1947969073780E+00  9.2133141564869E-01
50  4.9000000000000E-01  1.2250946659739E+00  8.7163129100823E-01
51  5.0000000000000E-01  1.2551602310229E+00  8.0896604815792E-01
52  5.1000000000000E-01  1.2847998752799E+00  7.3448093808505E-01
53  5.2000000000000E-01  1.3138029332841E+00  6.4953597923781E-01
54  5.3000000000000E-01  1.3419447165433E+00  5.5568204004698E-01
55  5.4000000000000E-01  1.3689897824213E+00  4.5463325545068E-01
56  5.5000000000000E-01  1.3946954994384E+00  3.4823627681601E-01
57  5.6000000000000E-01  1.4188158454687E+00  2.3843691642690E-01
58  5.7000000000000E-01  1.4411053702569E+00  1.2724479919192E-01
59  5.8000000000000E-01  1.4613232498866E+00  1.6696674406708E-02
60  5.9000000000000E-01  1.4792373583768E+00 -9.1180931522451E-02
61  6.0000000000000E-01  1.4946282805450E+00 -1.9440902510656E-01
62  6.1000000000000E-01  1.5072931906508E+00 -2.9109271991615E-01
63  6.2000000000000E-01  1.5170495231555E+00 -3.7945638698844E-01
64  6.3000000000000E-01  1.5237383651576E+00 -4.5787671742240E-01
65  6.4000000000000E-01  1.5272275046401E+00 -5.2491306945513E-01
66  6.5000000000000E-01  1.5274140745270E+00 -5.7933452064607E-01
67  6.6000000000000E-01  1.5242267395772E+00 -6.2014310523328E-01
68  6.7000000000000E-01  1.5176273812254E+00 -6.4659278619836E-01
69  6.8000000000000E-01  1.5076122444646E+00 -6.5820378980915E-01
70  6.9000000000000E-01  1.4942125205861E+00 -6.5477201597380E-01
71  7.0000000000000E-01  1.4774943498769E+00 -6.3637332904558E-01
72  7.1000000000000E-01  1.4575582390195E+00 -6.0336262907160E-01
73  7.2000000000000E-01  1.4345378987608E+00 -5.5636770109569E-01
74  7.3000000000000E-01  1.4085985181945E+00 -4.9627793817996E-01
75  7.4000000000000E-01  1.3799345025469E+00 -4.2422813043985E-01
76  7.5000000000000E-01  1.3487667114559E+00 -3.4157760578388E-01
77  7.6000000000000E-01  1.3153392441997E+00 -2.4988509641771E-01
78  7.7000000000000E-01  1.2799158269851E+00 -1.5087978683669E-01
79  7.8000000000000E-01  1.2427758650645E+00 -4.6429072421083E-02
80  7.9000000000000E-01  1.2042102289877E+00  6.1496378553494E-02
81  8.0000000000000E-01  1.1645168495500E+00  1.7085961390949E-01
82  8.1000000000000E-01  1.1239961998970E+00  2.7959575118187E-01
83  8.2000000000000E-01  1.0829467456812E+00  3.8565098144637E-01
84  8.3000000000000E-01  1.0416604451019E+00  4.8702149428473E-01
85  8.4000000000000E-01  1.0004183800588E+00  5.8179159381289E-01
86  8.5000000000000E-01  9.5948659752922E-01  6.6817028844138E-01
87  8.6000000000000E-01  9.1911223665365E-01  7.4452566332074E-01
88  8.7000000000000E-01  8.7952001196814E-01  8.0941638379429E-01
89  8.8000000000000E-01  8.4090911682205E-01  8.6161972993307E-01
90  8.9000000000000E-01  8.0345060339994E-01  9.0015562541493E-01
91  9.0000000000000E-01  7.6728528705296E-01  9.2430619747656E-01
92  9.1000000000000E-01  7.3252221300574E-01  9.3363048704415E-01
93  9.2000000000000E-01  6.9923771311641E-01  9.2797401790548E-01
94  9.3000000000000E-01  6.6747506942372E-01  9.0747302924192E-01
95  9.4000000000000E-01  6.3724478992229E-01  8.7255327520039E-01
96  9.5000000000000E-01  6.0852549057754E-01  8.2392339659266E-01
97  9.6000000000000E-01  5.8126536624267E-01  7.6256297132209E-01
98  9.7000000000000E-01  5.5538422208526E-01  6.8970544987952E-01
99  9.8000000000000E-01  5.3077602658195E-01  6.0681627829814E-01
100  9.9000000000000E-01  5.0731193729814E-01  5.1556660150794E-01
101  1.0000000000000E+00  4.8484374172545E-01  4.1780302334731E-01
102  1.0100000000000E+00  4.6320764756983E-01  3.1551397403077E-01
103  1.0200000000000E+00  4.4222835022540E-01  2.1079330018620E-01
104  1.0300000000000E+00  4.2172329986088E-01  1.0580174543507E-01
105  1.0400000000000E+00  4.0150708668671E-01  2.7270299323312E-03
106  1.0500000000000E+00  3.8139586064210E-01 -9.6256735487606E-02
107  1.0600000000000E+00  3.6121170098728E-01 -1.8902955142355E-01
108  1.0700000000000E+00  3.4078685212134E-01 -2.7356519959453E-01
109  1.0800000000000E+00  3.1996774436533E-01 -3.4796934588866E-01
110  1.0900000000000E+00  2.9861872238968E-01 -4.1051537060383E-01
111  1.1000000000000E+00  2.7662540938873E-01 -4.5967726107948E-01
112  1.1100000000000E+00  2.5389764185423E-01 -4.9415895536922E-01
113  1.1200000000000E+00  2.3037191782197E-01 -5.1291959070936E-01
114  1.1300000000000E+00  2.0601331052406E-01 -5.1519418536407E-01
115  1.1400000000000E+00  1.8081680939357E-01 -5.0050936629388E-01
116  1.1500000000000E+00  1.5480806105488E-01 -4.6869384561907E-01
117  1.1600000000000E+00  1.2804349419152E-01 -4.1988344518845E-01
118  1.1700000000000E+00  1.0060982368253E-01 -3.5452056786204E-01
119  1.1800000000000E+00  7.2622941068510E-02 -2.7334811580310E-01
120  1.1900000000000E+00  4.4226209843397E-02 -1.7739795659497E-01
121  1.2000000000000E+00  1.5588195274040E-02 -6.7974137439172E-02
122  1.2100000000000E+00 -1.3100131017466E-02  5.3368857870529E-02
123  1.2200000000000E+00 -4.1628661606281E-02  1.8485242498860E-01
124  1.2300000000000E+00 -6.9771839966926E-02  3.2450426210800E-01
125  1.2400000000000E+00 -9.7292696565003E-02  4.7019236127717E-01
126  1.2500000000000E+00 -1.2394716101049E-01  6.1966196600762E-01
127  1.2600000000000E+00 -1.4948857179530E-01  7.7057484187305E-01
128  1.2700000000000E+00 -1.7367230141039E-01  9.2055016720109E-01
129  1.2800000000000E+00 -1.9626041245118E-01  1.0672063242517E+00
130  1.2900000000000E+00 -2.1702625969273E-01  1.2082028577528E+00
131  1.3000000000000E+00 -2.3575895404584E-01  1.3412818673035E+00
132  1.3100000000000E+00 -2.5226760678799E-01  1.4643081130475E+00
133  1.3200000000000E+00 -2.6638527642327E-01  1.5753071396056E+00