S     ONCVPSP-4.0.1  r_core=   1.45687   1.45687   1.45687
16.0000      6.0000      220131    zatom,zion,pspd
8      11   2     4   600     0    pspcod,pspxc,lmax,lloc,mmax,r2well
5.99000000  6.00000000  0.00000000    rchrg fchrg qchrg
2     2     2     0     0    nproj
1     1           extension_switch
0                         6.7742339421226E+00  5.4226956794669E-01
1  0.0000000000000E+00  2.3004097460255E-08 -1.0464102093155E-07
2  1.0000000000000E-02  2.9652474622073E-02  4.1169158968149E-02
3  2.0000000000000E-02  5.9570926348040E-02  8.0964730509889E-02
4  3.0000000000000E-02  9.0013072466898E-02  1.1805122618126E-01
5  4.0000000000000E-02  1.2122033749275E-01  1.5116831819961E-01
6  5.0000000000000E-02  1.5341026775631E-01  1.7916585451920E-01
7  6.0000000000000E-02  1.8676960209334E-01  2.0103587326279E-01
8  7.0000000000000E-02  2.2144818935847E-01  2.1594074350258E-01
9  8.0000000000000E-02  2.5755392048849E-01  2.2323666402531E-01
10  9.0000000000000E-02  2.9514881526715E-01  2.2249187716207E-01
11  1.0000000000000E-01  3.3424637254492E-01  2.1349909765402E-01
12  1.1000000000000E-01  3.7481025828820E-01  1.9628181303179E-01
13  1.2000000000000E-01  4.1675436939843E-01  1.7109427791155E-01
14  1.3000000000000E-01  4.5994427373629E-01  1.3841519550310E-01
15  1.4000000000000E-01  5.0419998922025E-01  9.8935250895545E-02
16  1.5000000000000E-01  5.4930002825882E-01  5.3538827727960E-02
17  1.6000000000000E-01  5.9498659911215E-01  3.2803981713950E-03
18  1.7000000000000E-01  6.4097182400092E-01 -5.0643778527887E-02
19  1.8000000000000E-01  6.8694480575323E-01 -1.0692788529099E-01
20  1.9000000000000E-01  7.3257935126791E-01 -1.6419183258248E-01
21  2.0000000000000E-01  7.7754214171927E-01 -2.2101864361133E-01
22  2.1000000000000E-01  8.2150112674214E-01 -2.7599292405644E-01
23  2.2000000000000E-01  8.6413391317201E-01 -3.2773936932845E-01
24  2.3000000000000E-01  9.0513591846846E-01 -3.7496025890530E-01
25  2.4000000000000E-01  9.4422806474887E-01 -4.1647091217754E-01
26  2.5000000000000E-01  9.8116380126385E-01 -4.5123213290900E-01
27  2.6000000000000E-01  1.0157352608518E+00 -4.7837874851369E-01
28  2.7000000000000E-01  1.0477783789561E+00 -4.9724345381397E-01
29  2.8000000000000E-01  1.0771768315692E+00 -5.0737529406581E-01
30  2.9000000000000E-01  1.1038646802489E+00 -5.0855226551190E-01
31  3.0000000000000E-01  1.1278276472847E+00 -5.0078766975421E-01
32  3.1000000000000E-01  1.1491029812520E+00 -4.8433002662044E-01
33  3.2000000000000E-01  1.1677779115742E+00 -4.5965652444446E-01
34  3.3000000000000E-01  1.1839867292908E+00 -4.2746016212696E-01
35  3.4000000000000E-01  1.1979065689655E+00 -3.8863090927848E-01
36  3.5000000000000E-01  1.2097520025314E+00 -3.4423137454297E-01
37  3.6000000000000E-01  1.2197685888916E+00 -2.9546762342491E-01
38  3.7000000000000E-01  1.2282255523694E+00 -2.4365592148707E-01
39  3.8000000000000E-01  1.2354077878170E+00 -1.9018629296996E-01
40  3.9000000000000E-01  1.2416074096728E+00 -1.3648387555823E-01
41  4.0000000000000E-01  1.2471150759359E+00 -8.3969116650176E-02
42  4.1000000000000E-01  1.2522113255193E+00 -3.4017893226319E-02
43  4.2000000000000E-01  1.2571581685119E+00  1.2077354850231E-02
44  4.3000000000000E-01  1.2621911634540E+00  5.3144409875169E-02
45  4.4000000000000E-01  1.2675122039386E+00  8.8164961969407E-02
46  4.5000000000000E-01  1.2732832189557E+00  1.1630425585174E-01
47  4.6000000000000E-01  1.2796209678619E+00  1.3693586312827E-01
48  4.7000000000000E-01  1.2865930822671E+00  1.4966087151364E-01
49  4.8000000000000E-01  1.2942154742450E+00  1.5432092919883E-01
50  4.9000000000000E-01  1.3024511939239E+00  1.5100474534825E-01
51  5.0000000000000E-01  1.3112107806852E+00  1.4004782217338E-01
52  5.1000000000000E-01  1.3203541118875E+00  1.2202537559130E-01
53  5.2000000000000E-01  1.3296937123404E+00  9.7738585312229E-02
54  5.3000000000000E-01  1.3389994477494E+00  6.8194496412714E-02
55  5.4000000000000E-01  1.3480044871208E+00  3.4580068179905E-02
56  5.5000000000000E-01  1.3564123836984E+00 -1.7689724298573E-03
57  5.6000000000000E-01  1.3639050923594E+00 -3.9403670373305E-02
58  5.7000000000000E-01  1.3701517144059E+00 -7.6800848328123E-02
59  5.8000000000000E-01  1.3748177391041E+00 -1.1240455141960E-01
60  5.9000000000000E-01  1.3775745357623E+00 -1.4466882987893E-01
61  6.0000000000000E-01  1.3781088410606E+00 -1.7210071391298E-01
62  6.1000000000000E-01  1.3761319840389E+00 -1.9330222066093E-01
63  6.2000000000000E-01  1.3713885957323E+00 -2.0701024961906E-01
64  6.3000000000000E-01  1.3636645618394E+00 -2.1213327010174E-01
65  6.4000000000000E-01  1.3527939947696E+00 -2.0778378112357E-01
66  6.5000000000000E-01  1.3386650255133E+00 -1.9330562869768E-01
67  6.6000000000000E-01  1.3212242454217E+00 -1.6829539535862E-01
68  6.7000000000000E-01  1.3004796624219E+00 -1.3261722847067E-01
69  6.8000000000000E-01  1.2765020745534E+00 -8.6410643687614E-02
70  6.9000000000000E-01  1.2494248050112E+00 -3.0091023434404E-02
71  7.0000000000000E-01  1.2194417860351E+00  3.5657277307721E-02
72  7.1000000000000E-01  1.1868040228760E+00  1.0989510931493E-01
73  7.2000000000000E-01  1.1518145125359E+00  1.9144968791941E-01
74  7.3000000000000E-01  1.1148217338614E+00  2.7894224008899E-01
75  7.4000000000000E-01  1.0762118647584E+00  3.7082147049955E-01
76  7.5000000000000E-01  1.0363999177163E+00  4.6540201646176E-01
77  7.6000000000000E-01  9.9582001553137E-01  5.6090692133560E-01
78  7.7000000000000E-01  9.5491505423421E-01  6.5551304031628E-01
79  7.8000000000000E-01  9.1412601905973E-01  7.4739820443608E-01
80  7.9000000000000E-01  8.7388123128863E-01  8.3478891083218E-01
81  8.0000000000000E-01  8.3458580857042E-01  9.1600728154150E-01
82  8.1000000000000E-01  7.9661161871570E-01  9.8951604021873E-01
83  8.2000000000000E-01  7.6028799692819E-01  1.0539602963062E+00
84  8.3000000000000E-01  7.2589347923284E-01  1.1082049985160E+00
85  8.4000000000000E-01  6.9364878083345E-01  1.1513670223692E+00
86  8.5000000000000E-01  6.6371121787400E-01  1.1828409875154E+00
87  8.6000000000000E-01  6.3617073531885E-01  1.2023180564181E+00
88  8.7000000000000E-01  6.1104766329720E-01  1.2097971428499E+00
89  8.8000000000000E-01  5.8829228029163E-01  1.2055881520355E+00
90  8.9000000000000E-01  5.6778621510609E-01  1.1903070792863E+00
91  9.0000000000000E-01  5.4934567181651E-01  1.1648630053233E+00
92  9.1000000000000E-01  5.3272641412008E-01  1.1304372387179E+00
93  9.2000000000000E-01  5.1763039890222E-01  1.0884550634701E+00
94  9.3000000000000E-01  5.0371390465568E-01  1.0405507472403E+00
95  9.4000000000000E-01  4.9059695978457E-01  9.8852664794167E-01
96  9.5000000000000E-01  4.7787383989198E-01  9.3430741841772E-01
97  9.6000000000000E-01  4.6512437286071E-01  8.7989044640297E-01
98  9.7000000000000E-01  4.5192576671373E-01  8.2729377617035E-01
99  9.8000000000000E-01  4.3786465857509E-01  7.7850283609115E-01
100  9.9000000000000E-01  4.2254907402165E-01  7.3541734055894E-01
101  1.0000000000000E+00  4.0561998501959E-01  6.9979974396463E-01
102  1.0100000000000E+00  3.8676216158108E-01  6.7322659810360E-01
103  1.0200000000000E+00  3.6571402714448E-01  6.5704410296196E-01
104  1.0300000000000E+00  3.4227625013423E-01  6.5232904568910E-01
105  1.0400000000000E+00  3.1631883371805E-01  6.5985619575834E-01
106  1.0500000000000E+00  2.8778650173962E-01  6.8007306890254E-01
107  1.0600000000000E+00  2.5670222021443E-01  7.1308279252780E-01
108  1.0700000000000E+00  2.2316873979237E-01  7.5863560463244E-01
109  1.0800000000000E+00  1.8736809386126E-01  8.1612930270811E-01
110  1.0900000000000E+00  1.4955903838585E-01  8.8461873353459E-01
111  1.1000000000000E+00  1.1007247189181E-01  9.6283418471662E-01
112  1.1100000000000E+00  6.9304925626848E-02  1.0492083112532E+00
113  1.1200000000000E+00  2.7710263994796E-02  1.1419110092006E+00
114  1.1300000000000E+00 -1.4210218025504E-02  1.2388914419486E+00
115  1.1400000000000E+00 -5.5919071133386E-02  1.3379262351591E+00
116  1.1500000000000E+00 -9.6855075438974E-02  1.4366726919955E+00
117  1.1600000000000E+00 -1.3644643474899E-01  1.5327257423933E+00
118  1.1700000000000E+00 -1.7412446125322E-01  1.6236772350083E+00
119  1.1800000000000E+00 -2.0933741491593E-01  1.7071761089108E+00
120  1.1900000000000E+00 -2.4156415479200E-01  1.7809879476079E+00
121  1.2000000000000E+00 -2.7032726091344E-01  1.8430524208034E+00
122  1.2100000000000E+00 -2.9520529541300E-01  1.8915371599249E+00
123  1.2200000000000E+00 -3.1584388992238E-01  1.9248866908238E+00
124  1.2300000000000E+00 -3.3196537275869E-01  1.9418651601521E+00
125  1.2400000000000E+00 -3.4337668296043E-01  1.9415917362888E+00
126  1.2500000000000E+00 -3.4997535868652E-01  1.9235677405801E+00
127  1.2600000000000E+00 -3.5175343326214E-01  1.8876947631859E+00
128  1.2700000000000E+00 -3.4879912231977E-01  1.8342832359463E+00
129  1.2800000000000E+00 -3.4129623919321E-01  1.7640511686567E+00
130  1.2900000000000E+00 -3.2952133095446E-01  1.6781129961509E+00
131  1.3000000000000E+00 -3.1383858326627E-01  1.5779587273373E+00
132  1.3100000000000E+00 -2.9469259740658E-01  1.4654238287683E+00
133  1.3200000000000E+00 -2.7259919538468E-01  1.3426505055870E+00
134  1.3300000000000E+00 -2.4813445806970E-01  1.2120412576135E+00
135  1.3400000000000E+00 -2.2192224568373E-01  1.0762057834788E+00
136  1.3500000000000E+00 -1.9462048814986E-01  9.3790247350557E-01
137  1.3600000000000E+00 -1.6690656619916E-01  7.9997587890318E-01
138  1.3700000000000E+00 -1.3946210434393E-01  6.6529155175023E-01
139  1.3800000000000E+00 -1.1295763024648E-01  5.3667020857711E-01
140  1.3900000000000E+00 -8.8035856775231E-02  4.1681607018134E-01
141  1.4000000000000E+00 -6.5296081349403E-02  3.0824947280986E-01
142  1.4100000000000E+00 -4.5289684773982E-02  2.1328669851797E-01
143  1.4200000000000E+00 -2.8499750699799E-02  1.3395455699579E-01
144  1.4300000000000E+00 -1.5329898433760E-02  7.1944383279586E-02
145  1.4400000000000E+00 -6.0921750689004E-03  2.8559485505246E-02
146  1.4500000000000E+00 -1.0509836907654E-03  4.9233076753015E-03
147  1.4600000000000E+00  8.0113172179603E-05 -3.7514565156140E-04
148  1.4700000000000E+00 -2.4041833810269E-05  1.1258899723759E-04
149  1.48  0. -0.
150  1.49  0. -0.
151  1.50  0.  0.
152  1.51  0.  0.
153  1.52  0.  0.
154  1.53  0.  0.
155  1.54  0.  0.
156  1.55  0.  0.
157  1.56  0.  0.
158  1.57  0.  0.
159  1.58  0.  0.
160  1.59  0.  0.
161  1.60  0.  0.
162  1.61  0.  0.
163  1.62  0.  0.
164  1.63  0.  0.
165  1.64  0.  0.
166  1.65  0.  0.
167  1.66  0.  0.
168  1.67  0.  0.
169  1.68  0.  0.
170  1.69  0.  0.
171  1.70  0.  0.
172  1.71  0.  0.
173  1.72  0.  0.
174  1.73  0.  0.
175  1.74  0.  0.
176  1.75  0.  0.
177  1.76  0.  0.
178  1.77  0.  0.
179  1.78  0.  0.
180  1.79  0.  0.
181  1.80  0.  0.
182  1.81  0.  0.
183  1.82  0.  0.
184  1.83  0.  0.
185  1.84  0.  0.
186  1.85  0.  0.
187  1.86  0.  0.
188  1.87  0.  0.
189  1.88  0.  0.
190  1.89  0.  0.
191  1.90  0.  0.
192  1.91  0.  0.
193  1.92  0.  0.
194  1.93  0.  0.
195  1.94  0.  0.
196  1.95  0.  0.
197  1.96  0.  0.
198  1.97  0.  0.
199  1.98  0.  0.
200  1.99  0.  0.
201  2.00  0.  0.
202  2.01  0.  0.
203  2.02  0.  0.
204  2.03  0.  0.
205  2.04  0.  0.
206  2.05  0.  0.
207  2.06  0.  0.
208  2.07  0.  0.
209  2.08  0.  0.
210  2.09  0.  0.
211  2.10  0.  0.
212  2.11  0.  0.
213  2.12  0.  0.
214  2.13  0.  0.
215  2.14  0.  0.
216  2.15  0.  0.
217  2.16  0.  0.
218  2.17  0.  0.
219  2.18  0.  0.
220  2.19  0.  0.
221  2.20  0.  0.
222  2.21  0.  0.
223  2.22  0.  0.
224  2.23  0.  0.
225  2.24  0.  0.
226  2.25  0.  0.
227  2.26  0.  0.
228  2.27  0.  0.
229  2.28  0.  0.
230  2.29  0.  0.
231  2.30  0.  0.
232  2.31  0.  0.
233  2.32  0.  0.
234  2.33  0.  0.
235  2.34  0.  0.
236  2.35  0.  0.
237  2.36  0.  0.
238  2.37  0.  0.
239  2.38  0.  0.
240  2.39  0.  0.
241  2.40  0.  0.
242  2.41  0.  0.
243  2.42  0.  0.
244  2.43  0.  0.
245  2.44  0.  0.
246  2.45  0.  0.
247  2.46  0.  0.
248  2.47  0.  0.
249  2.48  0.  0.
250  2.49  0.  0.
251  2.50  0.  0.
252  2.51  0.  0.
253  2.52  0.  0.
254  2.53  0.  0.
255  2.54  0.  0.
256  2.55  0.  0.
257  2.56  0.  0.
258  2.57  0.  0.
259  2.58  0.  0.
260  2.59  0.  0.
261  2.60  0.  0.
262  2.61  0.  0.
263  2.62  0.  0.
264  2.63  0.  0.
265  2.64  0.  0.
266  2.65  0.  0.
267  2.66  0.  0.
268  2.67  0.  0.
269  2.68  0.  0.
270  2.69  0.  0.
271  2.70  0.  0.
272  2.71  0.  0.
273  2.72  0.  0.
274  2.73  0.  0.
275  2.74  0.  0.
276  2.75  0.  0.
277  2.76  0.  0.
278  2.77  0.  0.
279  2.78  0.  0.
280  2.79  0.  0.
281  2.80  0.  0.
282  2.81  0.  0.
283  2.82  0.  0.
284  2.83  0.  0.
285  2.84  0.  0.
286  2.85  0.  0.
287  2.86  0.  0.
288  2.87  0.  0.
289  2.88  0.  0.
290  2.89  0.  0.
291  2.90  0.  0.
292  2.91  0.  0.
293  2.92  0.  0.
294  2.93  0.  0.
295  2.94  0.  0.
296  2.95  0.  0.
297  2.96  0.  0.
298  2.97  0.  0.
299  2.98  0.  0.
300  2.99  0.  0.
301  3.00  0.  0.
302  3.01  0.  0.
303  3.02  0.  0.
304  3.03  0.  0.
305  3.04  0.  0.
306  3.05  0.  0.
307  3.06  0.  0.
308  3.07  0.  0.
309  3.08  0.  0.
310  3.09  0.  0.
311  3.10  0.  0.
312  3.11  0.  0.
313  3.12  0.  0.
314  3.13  0.  0.
315  3.14  0.  0.
316  3.15  0.  0.
317  3.16  0.  0.
318  3.17  0.  0.
319  3.18  0.  0.
320  3.19  0.  0.
321  3.20  0.  0.
322  3.21  0.  0.
323  3.22  0.  0.
324  3.23  0.  0.
325  3.24  0.  0.
326  3.25  0.  0.
327  3.26  0.  0.
328  3.27  0.  0.
329  3.28  0.  0.
330  3.29  0.  0.
331  3.30  0.  0.
332  3.31  0.  0.
333  3.32  0.  0.
334  3.33  0.  0.
335  3.34  0.  0.
336  3.35  0.  0.
337  3.36  0.  0.
338  3.37  0.  0.
339  3.38  0.  0.
340  3.39  0.  0.
341  3.40  0.  0.
342  3.41  0.  0.
343  3.42  0.  0.
344  3.43  0.  0.
345  3.44  0.  0.
346  3.45  0.  0.
347  3.46  0.  0.
348  3.47  0.  0.
349  3.48  0.  0.
350  3.49  0.  0.
351  3.50  0.  0.
352  3.51  0.  0.
353  3.52  0.  0.
354  3.53  0.  0.
355  3.54  0.  0.
356  3.55  0.  0.
357  3.56  0.  0.
358  3.57  0.  0.
359  3.58  0.  0.
360  3.59  0.  0.
361  3.60  0.  0.
362  3.61  0.  0.
363  3.62  0.  0.
364  3.63  0.  0.
365  3.64  0.  0.
366  3.65  0.  0.
367  3.66  0.  0.
368  3.67  0.  0.
369  3.68  0.  0.
370  3.69  0.  0.
371  3.70  0.  0.
372  3.71  0.  0.
373  3.72  0.  0.
374  3.73  0.  0.
375  3.74  0.  0.
376  3.75  0.  0.
377  3.76  0.  0.
378  3.77  0.  0.
379  3.78  0.  0.
380  3.79  0.  0.
381  3.80  0.  0.
382  3.81  0.  0.
383  3.82  0.  0.
384  3.83  0.  0.
385  3.84  0.  0.
386  3.85  0.  0.
387  3.86  0.  0.
388  3.87  0.  0.
389  3.88  0.  0.
390  3.89  0.  0.
391  3.90  0.  0.
392  3.91  0.  0.
393  3.92  0.  0.
394  3.93  0.  0.
395  3.94  0.  0.
396  3.95  0.  0.
397  3.96  0.  0.
398  3.97  0.  0.
399  3.98  0.  0.
400  3.99  0.  0.
401  4.00  0.  0.
402  4.01  0.  0.
403  4.02  0.  0.
404  4.03  0.  0.
405  4.04  0.  0.
406  4.05  0.  0.
407  4.06  0.  0.
408  4.07  0.  0.
409  4.08  0.  0.
410  4.09  0.  0.
411  4.10  0.  0.
412  4.11  0.  0.
413  4.12  0.  0.
414  4.13  0.  0.
415  4.14  0.  0.
416  4.15  0.  0.
417  4.16  0.  0.
418  4.17  0.  0.
419  4.18  0.  0.
420  4.19  0.  0.
421  4.20  0.  0.
422  4.21  0.  0.
423  4.22  0.  0.
424  4.23  0.  0.
425  4.24  0.  0.
426  4.25  0.  0.
427  4.26  0.  0.
428  4.27  0.  0.
429  4.28  0.  0.
430  4.29  0.  0.
431  4.30  0.  0.
432  4.31  0.  0.
433  4.32  0.  0.
434  4.33  0.  0.
435  4.34  0.  0.
436  4.35  0.  0.
437  4.36  0.  0.
438  4.37  0.  0.
439  4.38  0.  0.
440  4.39  0.  0.
441  4.40  0.  0.
442  4.41  0.  0.
443  4.42  0.  0.
444  4.43  0.  0.
445  4.44  0.  0.
446  4.45  0.  0.
447  4.46  0.  0.
448  4.47  0.  0.
449  4.48  0.  0.
450  4.49  0.  0.
451  4.50  0.  0.
452  4.51  0.  0.
453  4.52  0.  0.
454  4.53  0.  0.
455  4.54  0.  0.
456  4.55  0.  0.
457  4.56  0.  0.
458  4.57  0.  0.
459  4.58  0.  0.
460  4.59  0.  0.
461  4.60  0.  0.
462  4.61  0.  0.
463  4.62  0.  0.
464  4.63  0.  0.
465  4.64  0.  0.
466  4.65  0.  0.
467  4.66  0.  0.
468  4.67  0.  0.
469  4.68  0.  0.
470  4.69  0.  0.
471  4.70  0.  0.
472  4.71  0.  0.
473  4.72  0.  0.
474  4.73  0.  0.
475  4.74  0.  0.
476  4.75  0.  0.
477  4.76  0.  0.
478  4.77  0.  0.
479  4.78  0.  0.
480  4.79  0.  0.
481  4.80  0.  0.
482  4.81  0.  0.
483  4.82  0.  0.
484  4.83  0.  0.
485  4.84  0.  0.
486  4.85  0.  0.
487  4.86  0.  0.
488  4.87  0.  0.
489  4.88  0.  0.
490  4.89  0.  0.
491  4.90  0.  0.
492  4.91  0.  0.
493  4.92  0.  0.
494  4.93  0.  0.
495  4.94  0.  0.
496  4.95  0.  0.
497  4.96  0.  0.
498  4.97  0.  0.
499  4.98  0.  0.
500  4.99  0.  0.
501  5.00  0.  0.
502  5.01  0.  0.
503  5.02  0.  0.
504  5.03  0.  0.
505  5.04  0.  0.
506  5.05  0.  0.
507  5.06  0.  0.
508  5.07  0.  0.
509  5.08  0.  0.
510  5.09  0.  0.
511  5.10  0.  0.
512  5.11  0.  0.
513  5.12  0.  0.
514  5.13  0.  0.
515  5.14  0.  0.
516  5.15  0.  0.
517  5.16  0.  0.
518  5.17  0.  0.
519  5.18  0.  0.
520  5.19  0.  0.
521  5.20  0.  0.
522  5.21  0.  0.
523  5.22  0.  0.
524  5.23  0.  0.
525  5.24  0.  0.
526  5.25  0.  0.
527  5.26  0.  0.
528  5.27  0.  0.
529  5.28  0.  0.
530  5.29  0.  0.
531  5.30  0.  0.
532  5.31  0.  0.
533  5.32  0.  0.
534  5.33  0.  0.
535  5.34  0.  0.
536  5.35  0.  0.
537  5.36  0.  0.
538  5.37  0.  0.
539  5.38  0.  0.
540  5.39  0.  0.
541  5.40  0.  0.
542  5.41  0.  0.
543  5.42  0.  0.
544  5.43  0.  0.
545  5.44  0.  0.
546  5.45  0.  0.
547  5.46  0.  0.
548  5.47  0.  0.
549  5.48  0.  0.
550  5.49  0.  0.
551  5.50  0.  0.
552  5.51  0.  0.
553  5.52  0.  0.
554  5.53  0.  0.
555  5.54  0.  0.
556  5.55  0.  0.
557  5.56  0.  0.
558  5.57  0.  0.
559  5.58  0.  0.
560  5.59  0.  0.
561  5.60  0.  0.
562  5.61  0.  0.
563  5.62  0.  0.
564  5.63  0.  0.
565  5.64  0.  0.
566  5.65  0.  0.
567  5.66  0.  0.
568  5.67  0.  0.
569  5.68  0.  0.
570  5.69  0.  0.
571  5.70  0.  0.
572  5.71  0.  0.
573  5.72  0.  0.
574  5.73  0.  0.
575  5.74  0.  0.
576  5.75  0.  0.
577  5.76  0.  0.
578  5.77  0.  0.
579  5.78  0.  0.
580  5.79  0.  0.
581  5.80  0.  0.
582  5.81  0.  0.
583  5.82  0.  0.
584  5.83  0.  0.
585  5.84  0.  0.
586  5.85  0.  0.
587  5.86  0.  0.
588  5.87  0.  0.
589  5.88  0.  0.
590  5.89  0.  0.
591  5.90  0.  0.
592  5.91  0.  0.
593  5.92  0.  0.
594  5.93  0.  0.
595  5.94  0.  0.
596  5.95  0.  0.
597  5.96  0.  0.
598  5.97  0.  0.
599  5.98  0.  0.
600  5.99  0.  0.
1                         3.0224262867479E+00  7.3701660241119E-01
1  0.0000000000000E+00 -1.2489941289551E-07  2.2005992469931E-07
2  1.0000000000000E-02 -1.4458007124782E-03  3.9172845433954E-03
3  2.0000000000000E-02 -5.7090538347091E-03  1.5536603816828E-02
4  3.0000000000000E-02 -1.2569852764764E-02  3.4464823238200E-02
5  4.0000000000000E-02 -2.1670072099087E-02  6.0061467892839E-02
6  5.0000000000000E-02 -3.2525659733137E-02  9.1460341735479E-02
7  6.0000000000000E-02 -4.4543282527561E-02  1.2759880120023E-01
8  7.0000000000000E-02 -5.7040783723441E-02  1.6725372789769E-01
9  8.0000000000000E-02 -6.9270785390697E-02  2.0908302501864E-01
10  9.0000000000000E-02 -8.0446665436575E-02  2.5167127938891E-01
11  1.0000000000000E-01 -8.9770059403355E-02  2.9357809169127E-01
12  1.1000000000000E-01 -9.6458985002545E-02  3.3338748569726E-01
13  1.2000000000000E-01 -9.9775663780262E-02  3.6975676645377E-01
14  1.3000000000000E-01 -9.9053120302444E-02  4.0146320867417E-01
15  1.4000000000000E-01 -9.3719674682605E-02  4.2744701988629E-01
16  1.5000000000000E-01 -8.3320508119678E-02  4.4684913634779E-01
17  1.6000000000000E-01 -6.7535571447886E-02  4.5904256993342E-01
18  1.7000000000000E-01 -4.6193220767355E-02  4.6365622622999E-01
19  1.8000000000000E-01 -1.9279098515091E-02  4.6059035171446E-01
20  1.9000000000000E-01  1.3060071303353E-02  4.5002303377094E-01
21  2.0000000000000E-01  5.0517943242854E-02  4.3240746313961E-01
22  2.1000000000000E-01  9.2635267321537E-02  4.0845996524163E-01
23  2.2000000000000E-01  1.3881169492047E-01  3.7913910535957E-01
24  2.3000000000000E-01  1.8832234095658E-01  3.4561646344807E-01
25  2.4000000000000E-01  2.4033861412022E-01  3.0923994817451E-01
26  2.5000000000000E-01  2.9395268589507E-01  2.7149076789657E-01
27  2.6000000000000E-01  3.4820484694028E-01  2.3393539068525E-01
28  2.7000000000000E-01  4.0211290017327E-01  1.9817399921383E-01
29  2.8000000000000E-01  4.5470266681436E-01  1.6578707360548E-01
30  2.9000000000000E-01  5.0503863721491E-01  1.3828181182746E-01
31  3.0000000000000E-01  5.5225378408517E-01  1.1704012015707E-01
32  3.1000000000000E-01  5.9557757243312E-01  1.0326987449562E-01
33  3.2000000000000E-01  6.3436124783181E-01  9.7961067439118E-02
34  3.3000000000000E-01  6.6809956130651E-01  1.0184831828396E-01
35  3.4000000000000E-01  6.9644819301348E-01  1.1538103743948E-01
36  3.5000000000000E-01  7.1923626494511E-01  1.3870230844204E-01
37  3.6000000000000E-01  7.3647348135108E-01  1.7163728668733E-01
38  3.7000000000000E-01  7.4835159995672E-01  2.1369162205106E-01
39  3.8000000000000E-01  7.5524011240936E-01  2.6406010161305E-01
40  3.9000000000000E-01  7.5767619333372E-01  3.2164538825675E-01
41  4.0000000000000E-01  7.5634915835425E-01  3.8508641087722E-01
42  4.1000000000000E-01  7.5207984682863E-01  4.5279565225996E-01
43  4.2000000000000E-01  7.4579550933849E-01  5.2300429111782E-01
44  4.3000000000000E-01  7.3850092800520E-01  5.9381389448713E-01
45  4.4000000000000E-01  7.3124662469870E-01  6.6325313405617E-01
46  4.5000000000000E-01  7.2509511405447E-01  7.2933782231532E-01
47  4.6000000000000E-01  7.2108623150765E-01  7.9013243764457E-01
48  4.7000000000000E-01  7.2020260874613E-01  8.4381123604770E-01
49  4.8000000000000E-01  7.2333637845592E-01  8.8871703399868E-01
50  4.9000000000000E-01  7.3125816635155E-01  9.2341579282129E-01
51  5.0000000000000E-01  7.4458937163737E-01  9.4674523940701E-01
52  5.1000000000000E-01  7.6377864862950E-01  9.5785591832088E-01
53  5.2000000000000E-01  7.8908338465975E-01  9.5624328214418E-01
54  5.3000000000000E-01  8.2055682587168E-01  9.4176968433229E-01
55  5.4000000000000E-01  8.5804133721956E-01  9.1467543454509E-01
56  5.5000000000000E-01  9.0116810071035E-01  8.7557840171408E-01
57  5.6000000000000E-01  9.4936336206959E-01  8.2546199542702E-01
58  5.7000000000000E-01  1.0018611363528E+00  7.6565171121598E-01
59  5.8000000000000E-01  1.0577220835879E+00  6.9778077929610E-01
60  5.9000000000000E-01  1.1158580723997E+00  6.2374579841325E-01
61  6.0000000000000E-01  1.1750617686801E+00  5.4565355615404E-01
62  6.1000000000000E-01  1.2340404233707E+00  4.6576052435332E-01
63  6.2000000000000E-01  1.2914528934663E+00  3.8640676398209E-01
64  6.3000000000000E-01  1.3459488179446E+00  3.0994617014868E-01
65  6.4000000000000E-01  1.3962087892027E+00  2.3867512804593E-01
66  6.5000000000000E-01  1.4409843135588E+00  1.7476172989768E-01
67  6.6000000000000E-01  1.4791363432702E+00  1.2017771805754E-01
68  6.7000000000000E-01  1.5096711881020E+00  7.6635269141928E-02
69  6.8000000000000E-01  1.5317726763964E+00  4.5530619161795E-02
70  6.9000000000000E-01  1.5448295324325E+00  2.7896352697034E-02
71  7.0000000000000E-01  1.5484570661026E+00  2.4363944823840E-02
72  7.1000000000000E-01  1.5425124291041E+00  3.5137859048252E-02
73  7.2000000000000E-01  1.5271028745122E+00  5.9982175916510E-02
74  7.3000000000000E-01  1.5025866586242E+00  9.8220364504800E-02
75  7.4000000000000E-01  1.4695664394826E+00  1.4874842316422E-01
76  7.5000000000000E-01  1.4288752492553E+00  2.1006121788943E-01
77  7.6000000000000E-01  1.3815553410780E+00  2.8029144827538E-01
78  7.7000000000000E-01  1.3288304284065E+00  3.5726028410781E-01
79  7.8000000000000E-01  1.2720720398141E+00  4.3853835188511E-01
80  7.9000000000000E-01  1.2127608982885E+00  5.2151542107893E-01
81  8.0000000000000E-01  1.1524443956281E+00  6.0347685499525E-01
82  8.1000000000000E-01  1.0926913644614E+00  6.8168465966592E-01
83  8.2000000000000E-01  1.0350454484184E+00  7.5346079384343E-01
84  8.3000000000000E-01  9.8097843178314E-01  8.1627029968997E-01
85  8.4000000000000E-01  9.3184491129303E-01  8.6780178104149E-01
86  8.5000000000000E-01  8.8883967353463E-01  9.0604279603445E-01
87  8.6000000000000E-01  8.5295908169904E-01  9.2934784312731E-01
88  8.7000000000000E-01  8.2496767658593E-01  9.3649680171743E-01
89  8.8000000000000E-01  8.0537106113146E-01  9.2674193614326E-01
90  8.9000000000000E-01  7.9439596894023E-01  8.9984187839539E-01
91  9.0000000000000E-01  7.9197821989376E-01  8.5608136205868E-01
92  9.1000000000000E-01  7.9775904534520E-01  7.9627587801162E-01
93  9.2000000000000E-01  8.1109002788627E-01  7.2176085005994E-01
94  9.3000000000000E-01  8.3104665294090E-01  6.3436537382720E-01
95  9.4000000000000E-01  8.5645021862222E-01  5.3637101207918E-01
96  9.5000000000000E-01  8.8589760366371E-01  4.3045658116603E-01
97  9.6000000000000E-01  9.1779815807856E-01  3.1963028339663E-01
98  9.7000000000000E-01  9.5041676437720E-01  2.0715092663634E-01
99  9.8000000000000E-01  9.8192192533962E-01  9.6440313358061E-02
100  9.9000000000000E-01  1.0104375732048E+00 -9.0108333951387E-03
101  1.0000000000000E+00  1.0340971698182E+00 -1.0574081924523E-01
102  1.0100000000000E+00  1.0510985816434E+00 -1.9041606624430E-01
103  1.0200000000000E+00  1.0597581706925E+00 -2.5992853082553E-01
104  1.0300000000000E+00  1.0585625438414E+00 -3.1148865156490E-01
105  1.0400000000000E+00  1.0462164492065E+00 -3.4271111483581E-01
106  1.0500000000000E+00  1.0216853984744E+00 -3.5169089385742E-01
107  1.0600000000000E+00  9.8423172575580E-01 -3.3706725830960E-01
108  1.0700000000000E+00  9.3344296399048E-01 -2.9807376272448E-01
109  1.0800000000000E+00  8.6925162389645E-01 -2.3457259266883E-01
110  1.0900000000000E+00  7.9194569278457E-01 -1.4707206899228E-01
111  1.1000000000000E+00  7.0216942528054E-01 -3.6726571334448E-02
112  1.1100000000000E+00  6.0091426654826E-01  9.4681372795099E-02
113  1.1200000000000E+00  4.8950002600375E-01  2.4477658671354E-01
114  1.1300000000000E+00  3.6954669443679E-01  4.1064358920336E-01
115  1.1400000000000E+00  2.4293756611945E-01  5.8889456005417E-01
116  1.1500000000000E+00  1.1177457780948E-01  7.7575125192892E-01
117  1.1600000000000E+00 -2.1672994313496E-02  9.6713876324024E-01
118  1.1700000000000E+00 -1.5502514181131E-01  1.1587887345076E+00
119  1.1800000000000E+00 -2.8585153438654E-01  1.3463492402597E+00
120  1.1900000000000E+00 -4.1173411213754E-01  1.5254984348392E+00
121  1.2000000000000E+00 -5.3033016128674E-01  1.6920588754933E+00
122  1.2100000000000E+00 -6.3943414568549E-01  1.8421093972618E+00
123  1.2200000000000E+00 -7.3703658494163E-01  1.9720914516698E+00
124  1.2300000000000E+00 -8.2137833718724E-01  2.0789069463871E+00
125  1.2400000000000E+00 -8.9099875715031E-01  2.1600048300442E+00
126  1.2500000000000E+00 -9.4477635777363E-01  2.2134539542999E+00
127  1.2600000000000E+00 -9.8196079980474E-01  2.2380001024971E+00
128  1.2700000000000E+00 -1.0021952636855E+00  2.2331054920118E+00
129  1.2800000000000E+00 -1.0055285175657E+00  2.1989695281999E+00
130  1.2900000000000E+00 -9.9241627383332E-01  2.1365300926530E+00
131  1.3000000000000E+00 -9.6371171825039E-01  2.0474451765544E+00
132  1.3100000000000E+00 -9.2064539403809E-01  1.9340552094507E+00
133  1.3200000000000E+00 -8.6479491627138E-01  1.7993269633877E+00
134  1.3300000000000E+00 -7.9804527334382E-01  1.6467804206588E+00
135  1.3400000000000E+00 -7.2254073570831E-01  1.4804004689344E+00
136  1.3500000000000E+00 -6.4062962654433E-01  1.3045357103826E+00
137  1.3600000000000E+00 -5.5480341585214E-01  1.1237870404344E+00
138  1.3700000000000E+00 -4.6763170271534E-01  9.4288887879356E-01
139  1.3800000000000E+00 -3.8169506171070E-01  7.6658646941813E-01
140  1.3900000000000E+00 -2.9951351698628E-01  5.9950812589452E-01
141  1.4000000000000E+00 -2.2347742544874E-01  4.4604143161682E-01
142  1.4100000000000E+00 -1.5580791116749E-01  3.1024344071608E-01
143  1.4200000000000E+00 -9.8479403864370E-02  1.9571372414051E-01
144  1.4300000000000E+00 -5.3166988525620E-02  1.0550125355188E-01
145  1.4400000000000E+00 -2.1191803832794E-02  4.2003874177287E-02
146  1.4500000000000E+00 -3.6644125558149E-03  7.2574011961282E-03
147  1.4600000000000E+00  2.7979756876355E-04 -5.5388229883320E-04
148  1.4700000000000E+00 -8.3918458662654E-05  1.6614362838326E-04
149  1.48  0. -0.
150  1.49  0. -0.
151  1.50  0.  0.
152  1.51  0.  0.
153  1.52  0.  0.
154  1.53  0.  0.
155  1.54  0.  0.
156  1.55  0.  0.
157  1.56  0.  0.
158  1.57  0.  0.
159  1.58  0.  0.
160  1.59  0.  0.
161  1.60  0.  0.
162  1.61  0.  0.
163  1.62  0.  0.
164  1.63  0.  0.
165  1.64  0.  0.
166  1.65  0.  0.
167  1.66  0.  0.
168  1.67  0.  0.
169  1.68  0.  0.
170  1.69  0.  0.
171  1.70  0.  0.
172  1.71  0.  0.
173  1.72  0.  0.
174  1.73  0.  0.
175  1.74  0.  0.
176  1.75  0.  0.
177  1.76  0.  0.
178  1.77  0.  0.
179  1.78  0.  0.
180  1.79  0.  0.
181  1.80  0.  0.
182  1.81  0.  0.
183  1.82  0.  0.
184  1.83  0.  0.
185  1.84  0.  0.
186  1.85  0.  0.
187  1.86  0.  0.
188  1.87  0.  0.
189  1.88  0.  0.
190  1.89  0.  0.
191  1.90  0.  0.
192  1.91  0.  0.
193  1.92  0.  0.
194  1.93  0.  0.
195  1.94  0.  0.
196  1.95  0.  0.
197  1.96  0.  0.
198  1.97  0.  0.
199  1.98  0.  0.
200  1.99  0.  0.
201  2.00  0.  0.
202  2.01  0.  0.
203  2.02  0.  0.
204  2.03  0.  0.
205  2.04  0.  0.
206  2.05  0.  0.
207  2.06  0.  0.
208  2.07  0.  0.
209  2.08  0.  0.
210  2.09  0.  0.
211  2.10  0.  0.
212  2.11  0.  0.
213  2.12  0.  0.
214  2.13  0.  0.
215  2.14  0.  0.
216  2.15  0.  0.
217  2.16  0.  0.
218  2.17  0.  0.
219  2.18  0.  0.
220  2.19  0.  0.
221  2.20  0.  0.
222  2.21  0.  0.
223  2.22  0.  0.
224  2.23  0.  0.
225  2.24  0.  0.
226  2.25  0.  0.
227  2.26  0.  0.
228  2.27  0.  0.
229  2.28  0.  0.
230  2.29  0.  0.
231  2.30  0.  0.
232  2.31  0.  0.
233  2.32  0.  0.
234  2.33  0.  0.
235  2.34  0.  0.
236  2.35  0.  0.
237  2.36  0.  0.
238  2.37  0.  0.
239  2.38  0.  0.
240  2.39  0.  0.
241  2.40  0.  0.
242  2.41  0.  0.
243  2.42  0.  0.
244  2.43  0.  0.
245  2.44  0.  0.
246  2.45  0.  0.
247  2.46  0.  0.
248  2.47  0.  0.