Bi    ONCVPSP-4.0.1  r_core=   2.40513   2.50798   2.10854   2.10854
83.0000     15.0000      220201    zatom,zion,pspd
8      11   3     4   600     0    pspcod,pspxc,lmax,lloc,mmax,r2well
5.99000000  6.00000000  0.00000000    rchrg fchrg qchrg
3     2     2     1     0    nproj
1     1           extension_switch
0                         1.0029192613790E+01  2.5571065102541E+00  4.3326585144417E-01
1  0.0000000000000E+00 -1.0673398276317E-10  1.5724563318109E-10 -1.8061434292616E-10
2  1.0000000000000E-02  3.0835881721374E-02 -1.2651224626100E-02  1.5302488867028E-02
3  2.0000000000000E-02  6.1589499621813E-02 -2.5196069989043E-02  3.0502391059989E-02
4  3.0000000000000E-02  9.2179161663114E-02 -3.7528952155610E-02  4.5497938541831E-02
5  4.0000000000000E-02  1.2252431532121E-01 -4.9545872062582E-02  6.0188994250158E-02
6  5.0000000000000E-02  1.5254610724201E-01 -6.1145193517011E-02  7.4477851882038E-02
7  6.0000000000000E-02  1.8216793085164E-01 -7.2228403986567E-02  8.8270016964287E-02
8  7.0000000000000E-02  2.1131595803158E-01 -8.2700852628745E-02  1.0147496318416E-01
9  8.0000000000000E-02  2.3991965107616E-01 -9.2472460164973E-02  1.1400685813603E-01
10  9.0000000000000E-02  2.6791225128208E-01 -1.0145839540065E-01  1.2578525286350E-01
11  1.0000000000000E-01  2.9523124067613E-01 -1.0957971342265E-01  1.3673572984105E-01
12  1.1000000000000E-01  3.2181877356816E-01 -1.1676395077159E-01  1.4679050434367E-01
13  1.2000000000000E-01  3.4762207481852E-01 -1.2294567318406E-01  1.5588897449468E-01
14  1.3000000000000E-01  3.7259380193331E-01 -1.2806697182944E-01  1.6397821565847E-01
15  1.4000000000000E-01  3.9669236834427E-01 -1.3207790432324E-01  1.7101341525344E-01
16  1.5000000000000E-01  4.1988222549186E-01 -1.3493687718364E-01  1.7695824449998E-01
17  1.6000000000000E-01  4.4213410160751E-01 -1.3661096680474E-01  1.8178516408126E-01
18  1.7000000000000E-01  4.6342519538448E-01 -1.3707617644985E-01  1.8547566118442E-01
19  1.8000000000000E-01  4.8373932303127E-01 -1.3631762721453E-01  1.8802041589619E-01
20  1.9000000000000E-01  5.0306701751831E-01 -1.3432968137147E-01  1.8941939545156E-01
21  2.0000000000000E-01  5.2140557915274E-01 -1.3111599698380E-01  1.8968187536979E-01
22  2.1000000000000E-01  5.3875907694823E-01 -1.2668951315650E-01  1.8882638705808E-01
23  2.2000000000000E-01  5.5513830059167E-01 -1.2107236578454E-01  1.8688059201182E-01
24  2.3000000000000E-01  5.7056066314757E-01 -1.1429573414802E-01  1.8388108329263E-01
25  2.4000000000000E-01  5.8505005497828E-01 -1.0639961919474E-01  1.7987311551198E-01
26  2.5000000000000E-01  5.9863664969451E-01 -9.7432554837166E-02  1.7491026509007E-01
27  2.6000000000000E-01  6.1135666328177E-01 -8.7451254068918E-02  1.6905402308875E-01
28  2.7000000000000E-01  6.2325206787361E-01 -7.6520192174785E-02  1.6237332343446E-01
29  2.8000000000000E-01  6.3437026195870E-01 -6.4711129761527E-02  1.5494400984299E-01
30  2.9000000000000E-01  6.4476369911345E-01 -5.2102578773228E-02  1.4684824523295E-01
31  3.0000000000000E-01  6.5448947764554E-01 -3.8779215072898E-02  1.3817386786652E-01
32  3.1000000000000E-01  6.6360889381038E-01 -2.4831241564560E-02  1.2901369887491E-01
33  3.2000000000000E-01  6.7218696152375E-01 -1.0353706198236E-02  1.1946480621611E-01
34  3.3000000000000E-01  6.8029190173688E-01  4.5542204593862E-03  1.0962773046738E-01
35  3.4000000000000E-01  6.8799460486154E-01  1.9790003098390E-02  9.9605678170050E-02
36  3.5000000000000E-01  6.9536806983426E-01  3.5248529716150E-02  8.9503688722294E-02
37  3.6000000000000E-01  7.0248682358603E-01  5.0822924337440E-02  7.9427781049611E-02
38  3.7000000000000E-01  7.0942632483705E-01  6.6405378693010E-02  6.9484086472733E-02
39  3.8000000000000E-01  7.1626235626422E-01  8.1887996978989E-02  5.9777974338569E-02
40  3.9000000000000E-01  7.2307040918981E-01  9.7163647695174E-02  5.0413177075263E-02
41  4.0000000000000E-01  7.2992506501539E-01  1.1212681647251E-01  4.1490921385525E-02
42  4.1000000000000E-01  7.3689937766975E-01  1.2667445375928E-01  3.3109072289271E-02
43  4.2000000000000E-01  7.4406426135987E-01  1.4070681123063E-01  2.5361296683030E-02
44  4.3000000000000E-01  7.5148788790236E-01  1.5412826082888E-01  1.8336252983436E-02
45  4.4000000000000E-01  7.5923509787503E-01  1.6684809042318E-01  1.2116813278617E-02
46  4.5000000000000E-01  7.6736682976130E-01  1.7878127020167E-01  6.7793242180450E-03
47  4.6000000000000E-01  7.7593957116438E-01  1.8984918407537E-01  2.3929126303860E-03
48  4.7000000000000E-01  7.8500483604689E-01  1.9998032057759E-01 -9.8115842406945E-04
49  4.8000000000000E-01  7.9460867180031E-01  2.0911091798948E-01 -3.2900777921188E-03
50  4.9000000000000E-01  8.0479119977538E-01  2.1718555870217E-01 -4.4900135488176E-03
51  5.0000000000000E-01  8.1558619270164E-01  2.2415770814743E-01 -4.5465749072997E-03
52  5.1000000000000E-01  8.2702069220155E-01  2.2999019397947E-01 -3.4352045662449E-03
53  5.2000000000000E-01  8.3911466935748E-01  2.3465562157489E-01 -1.1414978243218E-03
54  5.3000000000000E-01  8.5188073102134E-01  2.3813672233294E-01  2.3385546966406E-03
55  5.4000000000000E-01  8.6532387427053E-01  2.4042663169710E-01  6.9984033430424E-03
56  5.5000000000000E-01  8.7944129110853E-01  2.4152909428478E-01  1.2820856795824E-02
57  5.6000000000000E-01  8.9422222518869E-01  2.4145859399646E-01  1.9778081992734E-02
58  5.7000000000000E-01  9.0964788200575E-01  2.4024040747944E-01  2.7831687490368E-02
59  5.8000000000000E-01  9.2569139365453E-01  2.3791057983848E-01  3.6932890542934E-02
60  5.9000000000000E-01  9.4231783890092E-01  2.3451582201471E-01  4.7022767559070E-02
61  6.0000000000000E-01  9.5948431894837E-01  2.3011332979024E-01  5.8032586980292E-02
62  6.1000000000000E-01  9.7714008891842E-01  2.2477052491506E-01  6.9884223009875E-02
63  6.2000000000000E-01  9.9522674469348E-01  2.1856471939586E-01  8.2490648006567E-02
64  6.3000000000000E-01  1.0136784644043E+00  2.1158270452002E-01  9.5756500762129E-02
65  6.4000000000000E-01  1.0324223034779E+00  2.0392026671997E-01  1.0957872729383E-01
66  6.5000000000000E-01  1.0513785418016E+00  1.9568163290291E-01  1.2384729021534E-01
67  6.6000000000000E-01  1.0704610812060E+00  1.8697884837386E-01  1.3844594220948E-01
68  6.7000000000000E-01  1.0895778911272E+00  1.7793109096864E-01  1.5325305860796E-01
69  6.8000000000000E-01  1.1086314999760E+00  1.6866392547916E-01  1.6814252359925E-01
70  6.9000000000000E-01  1.1275195294280E+00  1.5930850289428E-01  1.8298466413595E-01
71  7.0000000000000E-01  1.1461352685442E+00  1.5000070939367E-01  1.9764722520212E-01
72  7.1000000000000E-01  1.1643682843559E+00  1.4088027041471E-01  2.1199637973112E-01
73  7.2000000000000E-01  1.1821050652808E+00  1.3208981546251E-01  2.2589776613989E-01
74  7.3000000000000E-01  1.1992296935025E+00  1.2377390964600E-01  2.3921754616879E-01
75  7.4000000000000E-01  1.2156245422301E+00  1.1607805819931E-01  2.5182347548715E-01
76  7.5000000000000E-01  1.2311709935649E+00  1.0914769047975E-01  2.6358597935292E-01
77  7.6000000000000E-01  1.2457501725394E+00  1.0312713012955E-01  2.7437922548757E-01
78  7.7000000000000E-01  1.2592436927609E+00  9.8158558232213E-02  2.8408218626723E-01
79  7.8000000000000E-01  1.2715344089859E+00  9.4380976401895E-02  2.9257968231368E-01
80  7.9000000000000E-01  1.2825071718771E+00  9.1929176795990E-02  2.9976339962195E-01
81  8.0000000000000E-01  1.2920495801522E+00  9.0932726055946E-02  3.0553287245638E-01
82  8.1000000000000E-01  1.3000527253173E+00  9.1514970139540E-02  3.0979642441279E-01
83  8.2000000000000E-01  1.3064119242007E+00  9.3792066925165E-02  3.1247206025629E-01
84  8.3000000000000E-01  1.3110274345479E+00  9.7872053336552E-02  3.1348830141496E-01
85  8.4000000000000E-01  1.3138051490226E+00  1.0385395355702E-01  3.1278495833472E-01
86  8.5000000000000E-01  1.3146572630674E+00  1.1182693468073E-01  3.1031383327318E-01
87  8.6000000000000E-01  1.3135029122227E+00  1.2186951587732E-01  3.0603934753891E-01
88  8.7000000000000E-01  1.3102687746696E+00  1.3404883683789E-01  2.9993908765213E-01
89  8.8000000000000E-01  1.3048896349648E+00  1.4841999091754E-01  2.9200426541884E-01
90  8.9000000000000E-01  1.2973089051600E+00  1.6502542800056E-01  2.8224008746662E-01
91  9.0000000000000E-01  1.2874790997518E+00  1.8389443168490E-01  2.7066603038686E-01
92  9.1000000000000E-01  1.2753622611828E+00  2.0504267492649E-01  2.5731601825055E-01
93  9.2000000000000E-01  1.2609303329153E+00  2.2847185778976E-01  2.4223849992424E-01
94  9.3000000000000E-01  1.2441654774157E+00  2.5416943043356E-01  2.2549642429289E-01
95  9.4000000000000E-01  1.2250603367285E+00  2.8210840392012E-01  2.0716711219545E-01
96  9.5000000000000E-01  1.2036182336699E+00  3.1224725086971E-01  1.8734202459783E-01
97  9.6000000000000E-01  1.1798533120410E+00  3.4452989740624E-01  1.6612642725105E-01
98  9.7000000000000E-01  1.1537906146397E+00  3.7888580724388E-01  1.4363895281707E-01
99  9.8000000000000E-01  1.1254660982397E+00  4.1523015816442E-01  1.2001106217460E-01
100  9.9000000000000E-01  1.0949265850990E+00  4.5346411052841E-01  9.5386407343404E-02
101  1.0000000000000E+00  1.0622296509634E+00  4.9347516685328E-01  6.9920099185018E-02
102  1.0100000000000E+00  1.0274434499267E+00  5.3513762089023E-01  4.3777883734052E-02
103  1.0200000000000E+00  9.9064647691301E-01  5.7831309403181E-01  1.7135231698755E-02
104  1.0300000000000E+00  9.5192726894025E-01  6.2285115629825E-01 -9.8236536787528E-03
105  1.0400000000000E+00  9.1138404671354E-01  6.6859002857928E-01 -3.6906904585878E-02
106  1.0500000000000E+00  8.6912429847745E-01  7.1535736225832E-01 -6.3916126022558E-02
107  1.0600000000000E+00  8.2526430842427E-01  7.6297109181753E-01 -9.0647595648510E-02
108  1.0700000000000E+00  7.7992863230941E-01  8.1124035552285E-01 -1.1689351863522E-01
109  1.0800000000000E+00  7.3324952326303E-01  8.5996647881701E-01 -1.4244332960430E-01
110  1.0900000000000E+00  6.8536631110523E-01  9.0894401461345E-01 -1.6708503332807E-01
111  1.1000000000000E+00  6.3642473877116E-01  9.5796183428297E-01 -1.9060657551429E-01
112  1.1100000000000E+00  5.8657625972506E-01  1.0068042627684E+00 -2.1279723470709E-01
113  1.1200000000000E+00  5.3597730049471E-01  1.0552522509422E+00 -2.3344902609674E-01
114  1.1300000000000E+00  4.8478849267956E-01  1.1030845780509E+00 -2.5235810786322E-01
115  1.1400000000000E+00  4.3317387898147E-01  1.1500790768659E+00 -2.6932618056957E-01
116  1.1500000000000E+00  3.8130009797377E-01  1.1960138739791E+00 -2.8416187007738E-01
117  1.1600000000000E+00  3.2933555245906E-01  1.2406686375587E+00 -2.9668208448225E-01
118  1.1700000000000E+00  2.7744956637036E-01  1.2838258247988E+00 -3.0671333565609E-01
119  1.1800000000000E+00  2.2581153524301E-01  1.3252719212757E+00 -3.1409301613909E-01
120  1.1900000000000E+00  1.7459007532289E-01  1.3647986644461E+00 -3.1867062234664E-01
121  1.2000000000000E+00  1.2395217638403E-01  1.4022042436028E+00 -3.2030891534300E-01
122  1.2100000000000E+00  7.4062363302066E-02  1.4372944687318E+00 -3.1888501078125E-01
123  1.2200000000000E+00  2.5081871369936E-02  1.4698839008955E+00 -3.1429139002334E-01
124  1.2300000000000E+00 -2.2832159747471E-02  1.4997969369936E+00 -3.0643682491777E-01
125  1.2400000000000E+00 -6.9527468647185E-02  1.5268688420338E+00 -2.9524720923930E-01
126  1.2500000000000E+00 -1.1485742679302E-01  1.5509467223656E+00 -2.8066629037575E-01
127  1.2600000000000E+00 -1.5868176065417E-01  1.5718904336982E+00 -2.6265629546201E-01
128  1.2700000000000E+00 -2.0086723715656E-01  1.5895734181320E+00 -2.4119844684257E-01
129  1.2800000000000E+00 -2.4128830846218E-01  1.6038834648844E+00 -2.1629336244584E-01
130  1.2900000000000E+00 -2.7982771235709E-01  1.6147233898681E+00 -1.8796133740029E-01
131  1.3000000000000E+00 -3.1637702481707E-01  1.6220116298020E+00 -1.5624250399892E-01
132  1.3100000000000E+00 -3.5083716162968E-01  1.6256827470787E+00 -1.2119686791820E-01
133  1.3200000000000E+00 -3.8311882627930E-01  1.6256878421797E+00 -8.2904219414684E-02
134  1.3300000000000E+00 -4.1314290164926E-01  1.6219948710271E+00 -4.1463919059069E-02
135  1.3400000000000E+00 -4.4084078345550E-01  1.6145888652653E+00  3.0054415933417E-03
136  1.3500000000000E+00 -4.6615465370045E-01  1.6034720540944E+00  5.0366503150437E-02
137  1.3600000000000E+00 -4.8903769281575E-01  1.5886638868993E+00  1.0046372327195E-01
138  1.3700000000000E+00 -5.0945422955733E-01  1.5702009565678E+00  1.5312408038037E-01
139  1.3800000000000E+00 -5.2737982810680E-01  1.5481368240158E+00  2.0815789247104E-01
140  1.3900000000000E+00 -5.4280131223201E-01  1.5225417450787E+00  2.6535974649945E-01
141  1.4000000000000E+00 -5.5571672675310E-01  1.4935023015459E+00  3.2450953306262E-01
142  1.4100000000000E+00 -5.6613523695483E-01  1.4611209387321E+00  3.8537358035164E-01
143  1.4200000000000E+00 -5.7407696696804E-01  1.4255154125689E+00  4.4770588066623E-01
144  1.4300000000000E+00 -5.7957277852435E-01  1.3868181497793E+00  5.1124940211820E-01
145  1.4400000000000E+00 -5.8266399184886E-01  1.3451755252390E+00  5.7573747755817E-01
146  1.4500000000000E+00 -5.8340205081186E-01  1.3007470611576E+00  6.4089526219529E-01
147  1.4600000000000E+00 -5.8184813479145E-01  1.2537045531906E+00  7.0644125089475E-01
148  1.4700000000000E+00 -5.7807272002122E-01  1.2042311290550E+00  7.7208884568987E-01
149  1.4800000000000E+00 -5.7215509349019E-01  1.1525202456311E+00  8.3754796367996E-01
150  1.4900000000000E+00 -5.6418282273837E-01  1.0987746309032E+00  9.0252667517495E-01
151  1.5000000000000E+00 -5.5425118514258E-01  1.0432051774293E+00  9.6673286170629E-01
152  1.5100000000000E+00 -5.4246256051095E-01  9.8602979430405E-01  1.0298758833579E+00
153  1.5200000000000E+00 -5.2892579100407E-01  9.2747222482336E-01  1.0916682447698E+00
154  1.5300000000000E+00 -5.1375551256912E-01  8.6776083723909E-01  1.1518272491446E+00
155  1.5400000000000E+00 -4.9707146221704E-01  8.0712739613551E-01  1.2100766296309E+00
156  1.5500000000000E+00 -4.7899776558129E-01  7.4580582203979E-01  1.2661481475809E+00
157  1.5600000000000E+00 -4.5966220927895E-01  6.8403094691581E-01  1.3197831473680E+00
158  1.5700000000000E+00 -4.3919550264552E-01  6.2203727317456E-01  1.3707340577139E+00
159  1.5800000000000E+00 -4.1773053343363E-01  5.6005774376562E-01  1.4187658298055E+00
160  1.5900000000000E+00 -3.9540162205489E-01  4.9832253079708E-01  1.4636573028764E+00
161  1.6000000000000E+00 -3.7234377890305E-01  4.3705784996476E-01  1.5052024883940E+00
162  1.6100000000000E+00 -3.4869196922547E-01  3.7648480785718E-01  1.5432117645086E+00
163  1.6200000000000E+00 -3.2458038991010E-01  3.1681828894274E-01  1.5775129730048E+00
164  1.6300000000000E+00 -3.0014176242670E-01  2.5826588874094E-01  1.6079524116233E+00
165  1.6400000000000E+00 -2.7550664600820E-01  2.0102689933689E-01  1.6343957153006E+00
166  1.6500000000000E+00 -2.5080277497592E-01  1.4529135301129E-01  1.6567286206005E+00
167  1.6600000000000E+00 -2.2615442390980E-01  9.1239129340642E-02  1.6748576083700E+00
168  1.6700000000000E+00 -2.0168180413928E-01  3.9039130671565E-02  1.6887104204465E+00
169  1.6800000000000E+00 -1.7750049478327E-01 -1.1151469609359E-02  1.6982364470666E+00
170  1.6900000000000E+00 -1.5372091130347E-01 -5.9187902093878E-02  1.7034069824697E+00
171  1.7000000000000E+00 -1.3044781425500E-01 -1.0493839626903E-01  1.7042153470467E+00
172  1.7100000000000E+00 -1.0777986062248E-01 -1.4828469249009E-01  1.7006768752549E+00
173  1.7200000000000E+00 -8.5809199824010E-02 -1.8912246872403E-01  1.6928287693893E+00
174  1.7300000000000E+00 -6.4621116149724E-02 -2.2736168034549E-01  1.6807298201666E+00
175  1.7400000000000E+00 -4.4293719077205E-02 -2.6292681184343E-01  1.6644599959428E+00
176  1.7500000000000E+00 -2.4897682579859E-02 -2.9575703986853E-01  1.6441199032230E+00
177  1.7600000000000E+00 -6.4960342137563E-03 -3.2580630762404E-01  1.6198301219455E+00
178  1.7700000000000E+00  1.0856005560841E-02 -3.5304331116709E-01  1.5917304198182E+00
179  1.7800000000000E+00  2.7111133694523E-02 -3.7745139874143E-01  1.5599788507466E+00
180  1.7900000000000E+00  4.2230024693097E-02 -3.9902838479981E-01  1.5247507431153E+00
181  1.8000000000000E+00  5.6181341099713E-02 -4.1778628089572E-01  1.4862375843661E+00
182  1.8100000000000E+00  6.8941695127505E-02 -4.3375094611906E-01  1.4446458089495E+00
183  1.8200000000000E+00  8.0495562551111E-02 -4.4696166022526E-01  1.4001954973030E+00
184  1.8300000000000E+00  9.0835150244807E-02 -4.5747062304807E-01  1.3531189940384E+00
185  1.8400000000000E+00  9.9960219020177E-02 -4.6534238419727E-01  1.3036594539778E+00
186  1.8500000000000E+00  1.0787786366565E-01 -4.7065320742180E-01  1.2520693250854E+00
187  1.8600000000000E+00  1.1460225231894E-01 -4.7349037435696E-01  1.1986087776723E+00
188  1.8700000000000E+00  1.2015432751307E-01 -4.7395143267603E-01  1.1435440895231E+00
189  1.8800000000000E+00  1.2456147142632E-01 -4.7214339392905E-01  1.0871459967871E+00
190  1.8900000000000E+00  1.2785713803086E-01 -4.6818188656832E-01  1.0296880206107E+00
191  1.9000000000000E+00  1.3008045498008E-01 -4.6219026983885E-01  9.7144477953841E-01
192  1.9100000000000E+00  1.3127579819333E-01 -4.5429871434318E-01  9.1269029770275E-01
193  1.9200000000000E+00  1.3149234219199E-01 -4.4464325517864E-01  8.5369631873331E-01
194  1.9300000000000E+00  1.3078358931240E-01 -4.3336482359030E-01  7.9473063516701E-01
195  1.9400000000000E+00  1.2920688096732E-01 -4.2060826308285E-01  7.3605544291778E-01
196  1.9500000000000E+00  1.2682289414989E-01 -4.0652133589317E-01  6.7792573007923E-01
197  1.9600000000000E+00  1.2369512637253E-01 -3.9125372564000E-01  6.2058770898164E-01
198  1.9700000000000E+00  1.1988937220757E-01 -3.7495604184358E-01  5.6427730001995E-01
199  1.9800000000000E+00  1.1547319450940E-01 -3.5777883171742E-01  5.0921867467179E-01
200  1.9900000000000E+00  1.1051539339810E-01 -3.3987160468672E-01  4.5562286615785E-01
201  2.0000000000000E+00  1.0508547737455E-01 -3.2138187898968E-01  4.0368647406569E-01
202  2.0100000000000E+00  9.9253132044437E-02 -3.0245423240964E-01  3.5359036110872E-01
203  2.0200000000000E+00  9.3087714869092E-02 -2.8322944217434E-01  3.0549874111277E-01
204  2.0300000000000E+00  8.6657839665991E-02 -2.6384390694338E-01  2.5955956057403E-01
205  2.0400000000000E+00  8.0031007477091E-02 -2.4442918691332E-01  2.1590513213744E-01
206  2.0500000000000E+00  7.3273198221184E-02 -2.2511139706080E-01  1.7465180271757E-01
207  2.0600000000000E+00  6.6448464674387E-02 -2.0601059011152E-01  1.3589941578395E-01
208  2.0700000000000E+00  5.9618552499423E-02 -1.8724020470100E-01  9.9730969026680E-02
209  2.0800000000000E+00  5.2842541940633E-02 -1.6890656087371E-01  6.6212357269396E-02
210  2.0900000000000E+00  4.6176513238996E-02 -1.5110840729449E-01  3.5392219037069E-02
211  2.1000000000000E+00  3.9673236807231E-02 -1.3393652129151E-01  7.3018868539338E-03
212  2.1100000000000E+00  3.3381888816032E-02 -1.1747336194696E-01 -1.8044561459040E-02
213  2.1200000000000E+00  2.7347792659805E-02 -1.0179277616331E-01 -4.0650153242089E-02
214  2.1300000000000E+00  2.1612186533925E-02 -8.6959757197096E-02 -6.0534776671759E-02
215  2.1400000000000E+00  1.6212017147788E-02 -7.3030254777156E-02 -7.7734845683186E-02
216  2.1500000000000E+00  1.1179759364148E-02 -6.0051035483637E-02 -9.2302878980060E-02
217  2.1600000000000E+00  6.5432613511582E-03 -4.8059591710892E-02 -1.0430699843596E-01
218  2.1700000000000E+00  2.3256146424207E-03 -3.7084097189036E-02 -1.1383035278279E-01
219  2.1800000000000E+00 -1.4549517030403E-03 -2.7143406679363E-02 -1.2097047303748E-01
220  2.1900000000000E+00 -4.7851537883235E-03 -1.8247097223462E-02 -1.2583856642095E-01
221  2.2000000000000E+00 -7.6567135568743E-03 -1.0395547984933E-02 -1.2855875605019E-01
222  2.2100000000000E+00 -1.0066398728651E-02 -3.5800555119685E-03 -1.2926727399051E-01
223  2.2200000000000E+00 -1.2016043395338E-02  2.2170189675882E-03 -1.2811161552220E-01
224  2.2300000000000E+00 -1.3512550766105E-02  7.0220737434083E-03 -1.2524966259748E-01
225  2.2400000000000E+00 -1.4567876893233E-02  1.0870063344303E-02 -1.2084878488643E-01
226  2.2500000000000E+00 -1.5199011957869E-02  1.3804285968255E-02 -1.1508492590336E-01
227  2.2600000000000E+00 -1.5427969542841E-02  1.5876177749104E-02 -1.0814169544365E-01
228  2.2700000000000E+00 -1.5281530407185E-02  1.7144827789996E-02 -1.0020933903508E-01
229  2.2800000000000E+00 -1.4791599474687E-02  1.7677250538257E-02 -9.1484259347093E-02
230  2.2900000000000E+00 -1.3996832857262E-02  1.7549562389156E-02 -8.2167368412828E-02
231  2.3000000000000E+00 -1.2944882862803E-02  1.6848445772814E-02 -7.2461349448225E-02
232  2.3100000000000E+00 -1.1680238351427E-02  1.5659273752265E-02 -6.2570645993933E-02
233  2.3200000000000E+00 -1.0248170637149E-02  1.4070411793378E-02 -5.2702803368147E-02
234  2.3300000000000E+00 -8.7008246337177E-03  1.2179457973077E-02 -4.3069253317803E-02
235  2.3400000000000E+00 -7.0952978974395E-03  1.0090944986442E-02 -3.3883748654248E-02
236  2.3500000000000E+00 -5.4938545002116E-03  7.9163861784640E-03 -2.5361681924823E-02
237  2.3600000000000E+00 -3.9637040314732E-03  5.7738564191314E-03 -1.7719285128054E-02
238  2.3700000000000E+00 -2.5782132059833E-03  3.7897090586259E-03 -1.1178021528549E-02
239  2.3800000000000E+00 -1.4052910294058E-03  2.0809852242164E-03 -5.9199754235656E-03
240  2.3900000000000E+00 -5.4251986991338E-04  8.0825639425809E-04 -2.2235559029680E-03
241  2.4000000000000E+00 -9.1004317428778E-05  1.3608443164301E-04 -3.6412720459611E-04
242  2.4100000000000E+00  2.7455048090643E-05 -4.1485695280013E-05  1.0637922372319E-04
243  2.4200000000000E+00 -1.0120253440144E-06  1.5218314936964E-06 -4.0036461832231E-06
244  2.43 -0.  0. -0.
245  2.44  0. -0.  0.
246  2.45 -0.  0. -0.
247  2.46 -0.  0. -0.
248  2.47  0.  0.  0.
249  2.48  0.  0.  0.
250  2.49  0.  0.  0.
251  2.50  0.  0.  0.
252  2.51  0.  0.  0.
253  2.52  0.  0.  0.
254  2.53  0.  0.  0.
255  2.54  0.  0.  0.
256  2.55  0.  0.  0.
257  2.56  0.  0.  0.
258  2.57  0.  0.  0.
259  2.58  0.  0.  0.
260  2.59  0.  0.  0.
261  2.60  0.  0.  0.
262  2.61  0.  0.  0.
263  2.62  0.  0.  0.
264  2.63  0.  0.  0.
265  2.64  0.  0.  0.
266  2.65  0.  0.  0.
267  2.66  0.  0.  0.
268  2.67  0.  0.  0.
269  2.68  0.  0.  0.
270  2.69  0.  0.  0.
271  2.70  0.  0.  0.
272  2.71  0.  0.  0.
273  2.72  0.  0.  0.
274  2.73  0.  0.  0.
275  2.74  0.  0.  0.
276  2.75  0.  0.  0.
277  2.76  0.  0.  0.
278  2.77  0.  0.  0.
279  2.78  0.  0.  0.
280  2.79  0.  0.  0.
281  2.80  0.  0.  0.
282  2.81  0.  0.  0.
283  2.82  0.  0.  0.
284  2.83  0.  0.  0.
285  2.84  0.  0.  0.
286  2.85  0.  0.  0.
287  2.86  0.  0.  0.
288  2.87  0.  0.  0.
289  2.88  0.  0.  0.
290  2.89  0.  0.  0.
291  2.90  0.  0.  0.
292  2.91  0.  0.  0.
293  2.92  0.  0.  0.
294  2.93  0.  0.  0.
295  2.94  0.  0.  0.
296  2.95  0.  0.  0.
297  2.96  0.  0.  0.
298  2.97  0.  0.  0.
299  2.98  0.  0.  0.
300  2.99  0.  0.  0.
301  3.00  0.  0.  0.
302  3.01  0.  0.  0.
303  3.02  0.  0.  0.
304  3.03  0.  0.  0.
305  3.04  0.  0.  0.
306  3.05  0.  0.  0.
307  3.06  0.  0.  0.
308  3.07  0.  0.  0.
309  3.08  0.  0.  0.
310  3.09  0.  0.  0.
311  3.10  0.  0.  0.
312  3.11  0.  0.  0.
313  3.12  0.  0.  0.
314  3.13  0.  0.  0.
315  3.14  0.  0.  0.
316  3.15  0.  0.  0.
317  3.16  0.  0.  0.
318  3.17  0.  0.  0.
319  3.18  0.  0.  0.
320  3.19  0.  0.  0.
321  3.20  0.  0.  0.
322  3.21  0.  0.  0.
323  3.22  0.  0.  0.
324  3.23  0.  0.  0.
325  3.24  0.  0.  0.
326  3.25  0.  0.  0.
327  3.26  0.  0.  0.
328  3.27  0.  0.  0.
329  3.28  0.  0.  0.
330  3.29  0.  0.  0.
331  3.30  0.  0.  0.
332  3.31  0.  0.  0.
333  3.32  0.  0.  0.
334  3.33  0.  0.  0.
335  3.34  0.  0.  0.
336  3.35  0.  0.  0.
337  3.36  0.  0.  0.
338  3.37  0.  0.  0.
339  3.38  0.  0.  0.
340  3.39  0.  0.  0.
341  3.40  0.  0.  0.
342  3.41  0.  0.  0.
343  3.42  0.  0.  0.
344  3.43  0.  0.  0.
345  3.44  0.  0.  0.
346  3.45  0.  0.  0.
347  3.46  0.  0.  0.
348  3.47  0.  0.  0.
349  3.48  0.  0.  0.
350  3.49  0.  0.  0.
351  3.50  0.  0.  0.
352  3.51  0.  0.  0.
353  3.52  0.  0.  0.
354  3.53  0.  0.  0.
355  3.54  0.  0.  0.
356  3.55  0.  0.  0.
357  3.56  0.  0.  0.
358  3.57  0.  0.  0.
359  3.58  0.  0.  0.
360  3.59  0.  0.  0.
361  3.60  0.  0.  0.
362  3.61  0.  0.  0.
363  3.62  0.  0.  0.
364  3.63  0.  0.  0.
365  3.64  0.  0.  0.
366  3.65  0.  0.  0.
367  3.66  0.  0.  0.
368  3.67  0.  0.  0.
369  3.68  0.  0.  0.
370  3.69  0.  0.  0.
371  3.70  0.  0.  0.
372  3.71  0.  0.  0.
373  3.72  0.  0.  0.
374  3.73  0.  0.  0.
375  3.74  0.  0.  0.
376  3.75  0.  0.  0.
377  3.76  0.  0.  0.
378  3.77  0.  0.  0.
379  3.78  0.  0.  0.
380  3.79  0.  0.  0.
381  3.80  0.  0.  0.
382  3.81  0.  0.  0.
383  3.82  0.  0.  0.
384  3.83  0.  0.  0.
385  3.84  0.  0.  0.
386  3.85  0.  0.  0.
387  3.86  0.  0.  0.
388  3.87  0.  0.  0.
389  3.88  0.  0.  0.
390  3.89  0.  0.  0.
391  3.90  0.  0.  0.
392  3.91  0.  0.  0.
393  3.92  0.  0.  0.
394  3.93  0.  0.  0.
395  3.94  0.  0.  0.
396  3.95  0.  0.  0.
397  3.96  0.  0.  0.
398  3.97  0.  0.  0.
399  3.98  0.  0.  0.
400  3.99  0.  0.  0.
401  4.00  0.  0.  0.
402  4.01  0.  0.  0.
403  4.02  0.  0.  0.
404  4.03  0.  0.  0.
405  4.04  0.  0.  0.
406  4.05  0.  0.  0.
407  4.06  0.  0.  0.
408  4.07  0.  0.  0.
409  4.08  0.  0.  0.
410  4.09  0.  0.  0.
411  4.10  0.  0.  0.
412  4.11  0.  0.  0.
413  4.12  0.  0.  0.
414  4.13  0.  0.  0.
415  4.14  0.  0.  0.
416  4.15  0.  0.  0.
417  4.16  0.  0.  0.
418  4.17  0.  0.  0.
419  4.18  0.  0.  0.
420  4.19  0.  0.  0.
421  4.20  0.  0.  0.
422  4.21  0.  0.  0.
423  4.22  0.  0.  0.
424  4.23  0.  0.  0.
425  4.24  0.  0.  0.
426  4.25  0.  0.  0.
427  4.26  0.  0.  0.
428  4.27  0.  0.  0.
429  4.28  0.  0.  0.
430  4.29  0.  0.  0.
431  4.30  0.  0.  0.
432  4.31  0.  0.  0.
433  4.32  0.  0.  0.
434  4.33  0.  0.  0.
435  4.34  0.  0.  0.
436  4.35  0.  0.  0.
437  4.36  0.  0.  0.
438  4.37  0.  0.  0.
439  4.38  0.  0.  0.
440  4.39  0.  0.  0.
441  4.40  0.  0.  0.
442  4.41  0.  0.  0.
443  4.42  0.  0.  0.
444  4.43  0.  0.  0.
445  4.44  0.  0.  0.
446  4.45  0.  0.  0.
447  4.46  0.  0.  0.
448  4.47  0.  0.  0.
449  4.48  0.  0.  0.
450  4.49  0.  0.  0.
451  4.50  0.  0.  0.
452  4.51  0.  0.  0.
453  4.52  0.  0.  0.
454  4.53  0.  0.  0.
455  4.54  0.  0.  0.
456  4.55  0.  0.  0.
457  4.56  0.  0.  0.
458  4.57  0.  0.  0.
459  4.58  0.  0.  0.
460  4.59  0.  0.  0.
461  4.60  0.  0.  0.
462  4.61  0.  0.  0.
463  4.62  0.  0.  0.
464  4.63  0.  0.  0.
465  4.64  0.  0.  0.
466  4.65  0.  0.  0.
467  4.66  0.  0.  0.
468  4.67  0.  0.  0.
469  4.68  0.  0.  0.
470  4.69  0.  0.  0.
471  4.70  0.  0.  0.
472  4.71  0.  0.  0.
473  4.72  0.  0.  0.
474  4.73  0.  0.  0.
475  4.74  0.  0.  0.
476  4.75  0.  0.  0.
477  4.76  0.  0.  0.
478  4.77  0.  0.  0.
479  4.78  0.  0.  0.
480  4.79  0.  0.  0.
481  4.80  0.  0.  0.
482  4.81  0.  0.  0.
483  4.82  0.  0.  0.
484  4.83  0.  0.  0.
485  4.84  0.  0.  0.
486  4.85  0.  0.  0.
487  4.86  0.  0.  0.
488  4.87  0.  0.  0.
489  4.88  0.  0.  0.
490  4.89  0.  0.  0.
491  4.90  0.  0.  0.
492  4.91  0.  0.  0.
493  4.92  0.  0.  0.
494  4.93  0.  0.  0.
495  4.94  0.  0.  0.
496  4.95  0.  0.  0.
497  4.96  0.  0.  0.
498  4.97  0.  0.  0.
499  4.98  0.  0.  0.
500  4.99  0.  0.  0.
501  5.00  0.  0.  0.
502  5.01  0.  0.  0.
503  5.02  0.  0.  0.
504  5.03  0.  0.  0.
505  5.04  0.  0.  0.
506  5.05  0.  0.  0.
507  5.06  0.  0.  0.
508  5.07  0.  0.  0.
509  5.08  0.  0.  0.
510  5.09  0.  0.  0.
511  5.10  0.  0.  0.
512  5.11  0.  0.  0.
513  5.12  0.  0.  0.
514  5.13  0.  0.  0.
515  5.14  0.  0.  0.
516  5.15  0.  0.  0.
517  5.16  0.  0.  0.
518  5.17  0.  0.  0.
519  5.18  0.  0.  0.
520  5.19  0.  0.  0.
521  5.20  0.  0.  0.
522  5.21  0.  0.  0.
523  5.22  0.  0.  0.
524  5.23  0.  0.  0.
525  5.24  0.  0.  0.
526  5.25  0.  0.  0.
527  5.26  0.  0.  0.
528  5.27  0.  0.  0.
529  5.28  0.  0.  0.
530  5.29  0.  0.  0.
531  5.30  0.  0.  0.
532  5.31  0.  0.  0.
533  5.32  0.  0.  0.
534  5.33  0.  0.  0.
535  5.34  0.  0.  0.
536  5.35  0.  0.  0.
537  5.36  0.  0.  0.
538  5.37  0.  0.  0.
539  5.38  0.  0.  0.
540  5.39  0.  0.  0.
541  5.40  0.  0.  0.
542  5.41  0.  0.  0.
543  5.42  0.  0.  0.
544  5.43  0.  0.  0.
545  5.44  0.  0.  0.
546  5.45  0.  0.  0.
547  5.46  0.  0.  0.
548  5.47  0.  0.  0.
549  5.48  0.  0.  0.
550  5.49  0.  0.  0.
551  5.50  0.  0.  0.
552  5.51  0.  0.  0.
553  5.52  0.  0.  0.
554  5.53  0.  0.  0.
555  5.54  0.  0.  0.
556  5.55  0.  0.  0.
557  5.56  0.  0.  0.
558  5.57  0.  0.  0.
559  5.58  0.  0.  0.
560  5.59  0.  0.  0.
561  5.60  0.  0.  0.
562  5.61  0.  0.  0.
563  5.62  0.  0.  0.
564  5.63  0.  0.  0.
565  5.64  0.  0.  0.
566  5.65  0.  0.  0.
567  5.66  0.  0.  0.
568  5.67  0.  0.  0.
569  5.68  0.  0.  0.
570  5.69  0.  0.  0.
571  5.70  0.  0.  0.
572  5.71  0.  0.  0.
573  5.72  0.  0.  0.
574  5.73  0.  0.  0.
575  5.74  0.  0.  0.
576  5.75  0.  0.  0.
577  5.76  0.  0.  0.
578  5.77  0.  0.  0.
579  5.78  0.  0.  0.
580  5.79  0.  0.  0.
581  5.80  0.  0.  0.
582  5.81  0.  0.  0.
583  5.82  0.  0.  0.
584  5.83  0.  0.  0.
585  5.84  0.  0.  0.
586  5.85  0.  0.  0.
587  5.86  0.  0.  0.
588  5.87  0.  0.  0.
589  5.88  0.  0.  0.
590  5.89  0.  0.  0.
591  5.90  0.  0.  0.
592  5.91  0.  0.  0.
593  5.92  0.  0.  0.
594  5.93  0.  0.  0.
595  5.94  0.  0.  0.
596  5.95  0.  0.  0.
597  5.96  0.  0.  0.
598  5.97  0.  0.  0.
599  5.98  0.  0.  0.
600  5.99  0.  0.  0.
1                         4.3233559085413E+00  5.0364563044384E-01
1  0.0000000000000E+00  2.3823859551797E-12 -8.2366422710090E-12
2  1.0000000000000E-02  2.6005364016533E-04 -1.7740391554260E-04
3  2.0000000000000E-02  1.0400100749796E-03 -7.0929288546608E-04
4  3.0000000000000E-02  2.3392560668721E-03 -1.5946993879325E-03
5  4.0000000000000E-02  4.1567702835255E-03 -2.8320135764266E-03
6  5.0000000000000E-02  6.4911243889045E-03 -4.4189872993989E-03