<?xml version="1.0" encoding="UTF-8" ?>
<psml version="1.1" energy_unit="hartree" length_unit="bohr"
 uuid="c5a05390-c73b-11ed-40e2-e4a4ff7eaa7e"
 xmlns="http://esl.cecam.org/PSML/ns/1.1">
<provenance creator="ONCVPSP-4.0.1+psml-4.0.1-76 (scalar-relativistic)"
 date="2023-03-20">
<annotation action="semilocal-pseudopotential-generation"
 action-cont="projectors-generation" />
<input-file name="oncvpsp-input">
<![CDATA[# atsym z nc nv iexc psfile
Bi 83 12 3 4 both
# n l f
1 0 2.0
2 0 2.0
2 1 6.0
3 0 2.0
3 1 6.0
3 2 10.0
4 0 2.0
4 1 6.0
4 2 10.0
5 0 2.0
5 1 6.0
4 3 14.0
5 2 10.0
6 0 2.0
6 1 3.0
# lmax
3
# l rc ep ncon nbas qcut
0 2.4 0.0 4 7 3.6
1 2.5 0.0 4 7 4.5
2 2.1 0.0 4 7 8.7
3 2.1 0.05 4 7 6.0
# lloc lpopt rc5 dvloc0
4 5 2.0 0.0
# l nproj debl
0 3 2.5
1 2 2.5
2 2 1.2
3 1 1.0
# icmod fcfact rcfact
3 6.0 1.34
# epsh1 epsh2 depsh
-12.0 12.0 0.02
# rlmax drl
6.0 0.01
 0
]]>
</input-file>
</provenance>
<pseudo-atom-spec atomic-label="Bi" atomic-number="83" z-pseudo="15"
 flavor="Hamann&apos;s oncvpsp" relativity="scalar" spin-dft="no"
 core-corrections="yes">
<annotation pseudo-energy="-71.1847043107" cutoff_hint_low="34"
 cutoff_hint_normal="36" cutoff_hint_high="38" />
<exchange-correlation>
<annotation oncvpsp-xc-code="4" oncvpsp-xc-type="GGA -- Perdew-Burke-Ernzerhof" />
<libxc-info number-of-functionals="2">
<functional name="Perdew, Burke &amp; Ernzerhof (GGA)" type="exchange" id="101" />
<functional name="Perdew, Burke &amp; Ernzerhof (GGA)" type="correlation"
 id="130" />
</libxc-info>
</exchange-correlation>
<valence-configuration total-valence-charge="15">
<shell n="5" l="d" occupation="10" />
<shell n="6" l="s" occupation="2" />
<shell n="6" l="p" occupation="3" />
</valence-configuration>
</pseudo-atom-spec>
<grid npts="797">
<annotation type="sampled from oncvpsp log grid"
 recipe="r(i:1..N) = r1*exp(a*(i-1)) + r=0; resampled"
 recipe-cont="r1: scale; a: step" scale="0.602409638554E-05"
 step="0.598207167755E-02" delta="0.500000000000E-02" rmax="44.5607955135" />
<grid-data>
  0.000000000000E+00  5.012129011407E-03  1.003201111458E-02  1.506782937162E-02
  2.007954040567E-02  2.520443900873E-02  3.033992045555E-02  3.544556770789E-02
  4.067386970803E-02  4.584321924963E-02  5.105505642029E-02  5.618319747793E-02
  6.145768013755E-02  6.682637337210E-02  7.223066981575E-02  7.760637730078E-02
  8.288485819215E-02  8.799439425065E-02  9.341891376093E-02  9.858631635585E-02
  1.040395502509E-01  1.091395884759E-01  1.144896315292E-01  1.201019346943E-01
  1.252379264522E-01  1.305935517356E-01  1.361782028659E-01  1.420016738142E-01
  1.471910311898E-01  1.525700302030E-01  1.581456011822E-01  1.639249277201E-01
  1.699154559291E-01  1.750744572908E-01  1.803900971108E-01  1.858671312721E-01
  1.915104600564E-01  1.973251325287E-01  2.033163510548E-01  2.094894759552E-01
  2.145626543754E-01  2.197586892739E-01  2.250805558497E-01  2.305313013514E-01
  2.361140468228E-01  2.418319888892E-01  2.476884015884E-01  2.536866382450E-01
  2.598301333908E-01  2.661224047310E-01  2.725670551586E-01  2.791677748175E-01
  2.842230051841E-01  2.893697767542E-01  2.946097471755E-01  2.999446041131E-01
  3.053760657924E-01  3.109058815530E-01  3.165358324118E-01  3.222677316369E-01
  3.281034253312E-01  3.340447930274E-01  3.400937482932E-01  3.462522393476E-01
  3.525222496882E-01  3.589057987303E-01  3.654049424574E-01  3.720217740829E-01
  3.787584247247E-01  3.856170640914E-01  3.925999011812E-01  3.997091849934E-01
  4.069472052525E-01  4.143162931458E-01  4.218188220744E-01  4.268958334169E-01
  4.320339516679E-01  4.372339123101E-01  4.424964596787E-01  4.478223470674E-01
  4.532123368367E-01  4.586672005229E-01  4.641877189484E-01  4.697746823336E-01
  4.754288904102E-01  4.811511525352E-01  4.869422878071E-01  4.928031251831E-01
  4.987345035978E-01  5.047372720831E-01  5.108122898899E-01  5.169604266110E-01
  5.231825623057E-01  5.294795876256E-01  5.358524039423E-01  5.423019234761E-01
  5.488290694271E-01  5.554347761067E-01  5.621199890719E-01  5.688856652604E-01
  5.757327731275E-01  5.826622927849E-01  5.896752161408E-01  5.967725470423E-01
  6.039553014185E-01  6.112245074264E-01  6.185812055977E-01  6.260264489883E-01
  6.335613033283E-01  6.411868471752E-01  6.489041720678E-01  6.567143826828E-01
  6.646185969928E-01  6.726179464262E-01  6.807135760294E-01  6.889066446305E-01
  6.971983250052E-01  7.055898040450E-01  7.140822829265E-01  7.226769772838E-01
  7.313751173824E-01  7.401779482952E-01  7.490867300809E-01  7.581027379641E-01
  7.672272625183E-01  7.764616098499E-01  7.858071017861E-01  7.952650760632E-01
  8.048368865187E-01  8.145239032848E-01  8.243275129847E-01  8.342491189310E-01
  8.392546136446E-01  8.442901413265E-01  8.493558821744E-01  8.544520174675E-01
  8.595787295723E-01  8.647362019497E-01  8.699246191614E-01  8.751441668764E-01
  8.803950318777E-01  8.856774020689E-01  8.909914664813E-01  8.963374152802E-01
  9.017154397719E-01  9.071257324105E-01  9.125684868050E-01  9.180438977258E-01
  9.235521611122E-01  9.290934740789E-01  9.346680349233E-01  9.402760431329E-01
  9.459176993917E-01  9.515932055880E-01  9.573027648215E-01  9.630465814105E-01
  9.688248608989E-01  9.746378100643E-01  9.804856369247E-01  9.863685507463E-01
  9.922867620507E-01  9.982404826230E-01  1.004229925519E+00  1.010255305072E+00
  1.016316836902E+00  1.022414737924E+00  1.028549226351E+00  1.034720521709E+00
  1.040928844840E+00  1.047174417909E+00  1.053457464416E+00  1.059778209203E+00
  1.066136878458E+00  1.072533699729E+00  1.078968901927E+00  1.085442715339E+00
  1.091955371631E+00  1.098507103860E+00  1.105098146484E+00  1.111728735362E+00
  1.118399107775E+00  1.125109502421E+00  1.131860159436E+00  1.138651320392E+00
  1.145483228315E+00  1.152356127685E+00  1.159270264451E+00  1.166225886037E+00
  1.173223241354E+00  1.180262580802E+00  1.187344156287E+00  1.194468221224E+00
  1.201635030552E+00  1.208844840735E+00  1.216097909779E+00  1.223394497238E+00
  1.230734864221E+00  1.238119273407E+00  1.245547989047E+00  1.253021276982E+00
  1.260539404643E+00  1.268102641071E+00  1.275711256918E+00  1.283365524459E+00
  1.291065717606E+00  1.298812111912E+00  1.306604984583E+00  1.314444614491E+00
  1.322331282178E+00  1.330265269871E+00  1.338246861490E+00  1.346276342659E+00
  1.354354000715E+00  1.362480124719E+00  1.370655005467E+00  1.378878935500E+00
  1.387152209113E+00  1.395475122368E+00  1.403847973102E+00  1.412271060941E+00
  1.420744687306E+00  1.429269155430E+00  1.437844770363E+00  1.446471838985E+00
  1.455150670019E+00  1.463881574039E+00  1.472664863483E+00  1.481500852664E+00
  1.490389857780E+00  1.499332196927E+00  1.508328190108E+00  1.517378159249E+00
  1.526482428204E+00  1.535641322774E+00  1.544855170710E+00  1.554124301734E+00
  1.563449047545E+00  1.572829741830E+00  1.582266720281E+00  1.591760320603E+00
  1.601310882526E+00  1.610918747822E+00  1.620584260309E+00  1.630307765870E+00
  1.640089612466E+00  1.649930150140E+00  1.659829731041E+00  1.669788709427E+00
  1.679807441684E+00  1.689886286334E+00  1.700025604052E+00  1.710225757676E+00
  1.720487112223E+00  1.730810034896E+00  1.741194895105E+00  1.751642064476E+00
  1.762151916863E+00  1.772724828364E+00  1.783361177334E+00  1.794061344398E+00
  1.804825712464E+00  1.815654666739E+00  1.826548594740E+00  1.837507886308E+00
  1.848532933626E+00  1.859624131228E+00  1.870781876015E+00  1.882006567271E+00
  1.893298606675E+00  1.904658398315E+00  1.916086348705E+00  1.927582866797E+00
  1.939148363998E+00  1.950783254182E+00  1.962487953707E+00  1.974262881429E+00
  1.986108458718E+00  1.998025109470E+00  2.010013260127E+00  2.022073339688E+00
  2.034205779726E+00  2.046411014404E+00  2.058689480490E+00  2.071041617373E+00
  2.083467867078E+00  2.095968674280E+00  2.108544486326E+00  2.121195753244E+00
  2.133922927763E+00  2.146726465330E+00  2.159606824122E+00  2.172564465067E+00
  2.185599851857E+00  2.198713450968E+00  2.211905731674E+00  2.225177166064E+00
  2.238528229060E+00  2.251959398435E+00  2.265471154825E+00  2.279063981754E+00
  2.292738365645E+00  2.306494795839E+00  2.320333764614E+00  2.334255767201E+00
  2.348261301805E+00  2.362350869615E+00  2.376524974833E+00  2.390784124682E+00
  2.405128829430E+00  2.419559602407E+00  2.434076960021E+00  2.448681421781E+00
  2.463373510312E+00  2.478153751374E+00  2.493022673882E+00  2.507980809925E+00
  2.523028694785E+00  2.538166866954E+00  2.553395868155E+00  2.568716243364E+00
  2.584128540824E+00  2.599633312069E+00  2.615231111942E+00  2.630922498613E+00
  2.646708033605E+00  2.662588281807E+00  2.678563811498E+00  2.694635194367E+00
  2.710803005533E+00  2.727067823566E+00  2.743430230507E+00  2.759890811890E+00
  2.776450156762E+00  2.793108857702E+00  2.809867510849E+00  2.826726715914E+00
  2.843687076209E+00  2.860749198666E+00  2.877913693858E+00  2.895181176022E+00
  2.912552263078E+00  2.930027576656E+00  2.947607742116E+00  2.965293388569E+00
  2.983085148900E+00  3.000983659794E+00  3.018989561752E+00  3.037103499123E+00
  3.055326120118E+00  3.073658076838E+00  3.092100025299E+00  3.110652625451E+00
  3.129316541204E+00  3.148092440451E+00  3.166980995094E+00  3.185982881064E+00
  3.205098778351E+00  3.224329371021E+00  3.243675347247E+00  3.263137399330E+00
  3.282716223726E+00  3.302412521069E+00  3.322226996195E+00  3.342160358172E+00
  3.362213320321E+00  3.382386600243E+00  3.402680919845E+00  3.423097005364E+00
  3.443635587396E+00  3.464297400920E+00  3.485083185326E+00  3.505993684438E+00
  3.527029646545E+00  3.548191824424E+00  3.569480975370E+00  3.590897861223E+00
  3.612443248390E+00  3.634117907880E+00  3.655922615328E+00  3.677858151019E+00
  3.699925299926E+00  3.722124851725E+00  3.744457600836E+00  3.766924346441E+00
  3.789525892519E+00  3.812263047874E+00  3.835136626162E+00  3.858147445919E+00
  3.881296330594E+00  3.904584108578E+00  3.928011613229E+00  3.951579682908E+00
  3.975289161006E+00  3.999140895972E+00  4.023135741348E+00  4.047274555796E+00
  4.071558203131E+00  4.095987552349E+00  4.120563477663E+00  4.145286858529E+00
  4.170158579681E+00  4.195179531159E+00  4.220350608346E+00  4.245672711996E+00
  4.271146748268E+00  4.296773628757E+00  4.322554270530E+00  4.348489596153E+00
  4.374580533730E+00  4.400828016932E+00  4.427232985034E+00  4.453796382944E+00
  4.480519161242E+00  4.507402276209E+00  4.534446689867E+00  4.561653370006E+00
  4.589023290226E+00  4.616557429967E+00  4.644256774547E+00  4.672122315194E+00
  4.700155049085E+00  4.728355979380E+00  4.756726115256E+00  4.785266471948E+00
  4.813978070779E+00  4.842861939204E+00  4.871919110839E+00  4.901150625504E+00
  4.930557529257E+00  4.960140874433E+00  4.989901719679E+00  5.019841129998E+00
  5.049960176778E+00  5.080259937838E+00  5.110741497465E+00  5.141405946450E+00
  5.172254382129E+00  5.203287908421E+00  5.234507635872E+00  5.265914681687E+00
  5.297510169777E+00  5.329295230796E+00  5.361271002181E+00  5.393438628194E+00
  5.425799259963E+00  5.458354055523E+00  5.491104179856E+00  5.524050804935E+00
  5.557195109765E+00  5.590538280423E+00  5.624081510106E+00  5.657825999166E+00
  5.691772955161E+00  5.725923592892E+00  5.760279134450E+00  5.794840809257E+00
  5.829609854112E+00  5.864587513237E+00  5.899775038316E+00  5.935173688546E+00
  5.970784730677E+00  6.006609439061E+00  6.042649095696E+00  6.078904990270E+00
  6.115378420212E+00  6.152070690733E+00  6.188983114877E+00  6.226117013566E+00
  6.263473715648E+00  6.301054557942E+00  6.338860885289E+00  6.376894050601E+00
  6.415155414905E+00  6.453646347394E+00  6.492368225479E+00  6.531322434831E+00
  6.570510369440E+00  6.609933431657E+00  6.649593032247E+00  6.689490590440E+00
  6.729627533983E+00  6.770005299187E+00  6.810625330982E+00  6.851489082968E+00
  6.892598017466E+00  6.933953605571E+00  6.975557327204E+00  7.017410671167E+00
  7.059515135194E+00  7.101872226005E+00  7.144483459361E+00  7.187350360118E+00
  7.230474462278E+00  7.273857309052E+00  7.317500452906E+00  7.361405455624E+00
  7.405573888358E+00  7.450007331688E+00  7.494707375678E+00  7.539675619932E+00
  7.584913673651E+00  7.630423155693E+00  7.676205694628E+00  7.722262928795E+00
  7.768596506368E+00  7.815208085406E+00  7.862099333919E+00  7.909271929922E+00
  7.956727561502E+00  8.004467926871E+00  8.052494734432E+00  8.100809702839E+00
  8.149414561056E+00  8.198311048422E+00  8.247500914712E+00  8.296985920201E+00
  8.346767835722E+00  8.396848442736E+00  8.447229533393E+00  8.497912910593E+00
  8.548900388057E+00  8.600193790385E+00  8.651794953127E+00  8.703705722846E+00
  8.755927957183E+00  8.808463524926E+00  8.861314306076E+00  8.914482191912E+00
  8.967969085064E+00  9.021776899574E+00  9.075907560972E+00  9.130363006337E+00
  9.185145184375E+00  9.240256055482E+00  9.295697591815E+00  9.351471777365E+00
  9.407580608030E+00  9.464026091678E+00  9.520810248228E+00  9.577935109717E+00
  9.635402720376E+00  9.693215136698E+00  9.751374427518E+00  9.809882674083E+00
  9.868741970128E+00  9.927954421948E+00  9.987522148480E+00  1.004744728137E+01
  1.010773196506E+01  1.016837835685E+01  1.022938862699E+01  1.029076495875E+01
  1.035250954851E+01  1.041462460580E+01  1.047711235343E+01  1.053997502755E+01
  1.060321487772E+01  1.066683416698E+01  1.073083517198E+01  1.079522018302E+01
  1.085999150411E+01  1.092515145314E+01  1.099070236186E+01  1.105664657603E+01
  1.112298645549E+01  1.118972437422E+01  1.125686272046E+01  1.132440389679E+01
  1.139235032017E+01  1.146070442209E+01  1.152946864862E+01  1.159864546051E+01
  1.166823733328E+01  1.173824675728E+01  1.180867623782E+01  1.187952829525E+01
  1.195080546502E+01  1.202251029781E+01  1.209464535959E+01  1.216721323175E+01
  1.224021651114E+01  1.231365781021E+01  1.238753975707E+01  1.246186499561E+01
  1.253663618559E+01  1.261185600270E+01  1.268752713872E+01  1.276365230155E+01
  1.284023421536E+01  1.291727562065E+01  1.299477927437E+01  1.307274795002E+01
  1.315118443772E+01  1.323009154435E+01  1.330947209361E+01  1.338932892617E+01
  1.346966489973E+01  1.355048288913E+01  1.363178578646E+01  1.371357650118E+01
  1.379585796019E+01  1.387863310795E+01  1.396190490660E+01  1.404567633604E+01
  1.412995039406E+01  1.421473009642E+01  1.430001847700E+01  1.438581858786E+01
  1.447213349939E+01  1.455896630038E+01  1.464632009819E+01  1.473419801878E+01
  1.482260320689E+01  1.491153882613E+01  1.500100805909E+01  1.509101410744E+01
  1.518156019209E+01  1.527264955324E+01  1.536428545056E+01  1.545647116326E+01
  1.554920999024E+01  1.564250525018E+01  1.573636028168E+01  1.583077844337E+01
  1.592576311403E+01  1.602131769272E+01  1.611744559887E+01  1.621415027247E+01
  1.631143517410E+01  1.640930378515E+01  1.650775960786E+01  1.660680616550E+01
  1.670644700250E+01  1.680668568451E+01  1.690752579862E+01  1.700897095341E+01
  1.711102477913E+01  1.721369092781E+01  1.731697307337E+01  1.742087491181E+01
  1.752540016128E+01  1.763055256225E+01  1.773633587763E+01  1.784275389289E+01
  1.794981041625E+01  1.805750927875E+01  1.816585433442E+01  1.827484946042E+01
  1.838449855719E+01  1.849480554853E+01  1.860577438182E+01  1.871740902811E+01
  1.882971348228E+01  1.894269176317E+01  1.905634791375E+01  1.917068600124E+01
  1.928571011724E+01  1.940142437795E+01  1.951783292421E+01  1.963493992176E+01
  1.975274956129E+01  1.987126605866E+01  1.999049365501E+01  2.011043661694E+01
  2.023109923664E+01  2.035248583206E+01  2.047460074705E+01  2.059744835154E+01
  2.072103304165E+01  2.084535923990E+01  2.097043139534E+01  2.109625398371E+01
  2.122283150761E+01  2.135016849666E+01  2.147826950764E+01  2.160713912468E+01
  2.173678195943E+01  2.186720265119E+01  2.199840586709E+01  2.213039630230E+01
  2.226317868011E+01  2.239675775219E+01  2.253113829870E+01  2.266632512850E+01
  2.280232307927E+01  2.293913701774E+01  2.307677183985E+01  2.321523247089E+01
  2.335452386571E+01  2.349465100891E+01  2.363561891496E+01  2.377743262845E+01
  2.392009722422E+01  2.406361780757E+01  2.420799951441E+01  2.435324751150E+01
  2.449936699657E+01  2.464636319855E+01  2.479424137774E+01  2.494300682600E+01
  2.509266486696E+01  2.524322085616E+01  2.539468018130E+01  2.554704826239E+01
  2.570033055196E+01  2.585453253527E+01  2.600965973048E+01  2.616571768887E+01
  2.632271199500E+01  2.648064826697E+01  2.663953215657E+01  2.679936934951E+01
  2.696016556561E+01  2.712192655900E+01  2.728465811836E+01  2.744836606707E+01
  2.761305626347E+01  2.777873460105E+01  2.794540700866E+01  2.811307945071E+01
  2.828175792741E+01  2.845144847498E+01  2.862215716583E+01  2.879389010882E+01
  2.896665344947E+01  2.914045337017E+01  2.931529609039E+01  2.949118786693E+01
  2.966813499414E+01  2.984614380410E+01  3.002522066693E+01  3.020537199093E+01
  3.038660422287E+01  3.056892384821E+01  3.075233739130E+01  3.093685141565E+01
  3.112247252414E+01  3.130920735929E+01  3.149706260344E+01  3.168604497906E+01
  3.187616124894E+01  3.206741821643E+01  3.225982272573E+01  3.245338166208E+01
  3.264810195206E+01  3.284399056377E+01  3.304105450715E+01  3.323930083419E+01
  3.343873663920E+01  3.363936905903E+01  3.384120527339E+01  3.404425250503E+01
  3.424851802006E+01  3.445400912818E+01  3.466073318295E+01  3.486869758205E+01
  3.507790976754E+01  3.528837722614E+01  3.550010748950E+01  3.571310813444E+01
  3.592738678324E+01  3.614295110394E+01  3.635980881057E+01  3.657796766343E+01
  3.679743546941E+01  3.701822008223E+01  3.724032940272E+01  3.746377137914E+01
  3.768855400741E+01  3.791468533146E+01  3.814217344344E+01  3.837102648411E+01
  3.860125264301E+01  3.883286015887E+01  3.906585731982E+01  3.930025246374E+01
  3.953605397852E+01  3.977327030239E+01  4.001190992421E+01  4.025198138375E+01
  4.049349327206E+01  4.073645423169E+01  4.098087295708E+01  4.122675819482E+01
  4.147411874399E+01  4.172296345645E+01  4.197330123719E+01  4.222514104462E+01
  4.247849189088E+01  4.273336284223E+01  4.298976301928E+01  4.324770159740E+01
  4.350718780698E+01  4.376823093382E+01  4.403084031943E+01  4.429502536134E+01
  4.456079551351E+01
</grid-data>
</grid>
<valence-charge total-charge="15" is-unscreening-charge="yes"
 rescaled-to-z-pseudo="no">
<radfunc>
<data npts="797">
  7.734396815717E-03  7.737826969365E-03  7.749492439635E-03  7.773560093888E-03
  7.816576523025E-03  7.890069014973E-03  8.006541593733E-03  8.180552770137E-03
  8.438187651182E-03  8.794073634826E-03  9.280023420988E-03  9.910175658820E-03
  1.074696309177E-02  1.183105078819E-02  1.319923085203E-02  1.487889411741E-02
  1.688175398833E-02  1.919758076686E-02  2.211135874862E-02  2.537202059631E-02
  2.938145936450E-02  3.371160727242E-02  3.891357623880E-02  4.516126926304E-02
  5.164815761021E-02  5.925812046834E-02  6.818231925646E-02  7.864327702106E-02
  8.902793871133E-02  1.009179817637E-01  1.145255893481E-01  1.300912525679E-01
  1.478871550414E-01  1.646414702768E-01  1.833561566759E-01  2.042506263897E-01
  2.275668262406E-01  2.535711523250E-01  2.825564458731E-01  3.148440548637E-01
  3.432872441285E-01  3.742637331402E-01  4.079828143636E-01  4.446685593580E-01
  4.845604720126E-01  5.279141041207E-01  5.750016182350E-01  6.261122803314E-01
  6.815528621487E-01  7.416479301712E-01  8.067399950789E-01  8.771894921127E-01
  9.337692491846E-01  9.937408323437E-01  1.057275459589E+00  1.124549423090E+00
  1.195743805547E+00  1.271044127867E+00  1.350639921058E+00  1.434724214866E+00
  1.523492935363E+00  1.617144203356E+00  1.715877525276E+00  1.819892867975E+00
  1.929389608765E+00  2.044565352012E+00  2.165614603698E+00  2.292727295567E+00
  2.426087150892E+00  2.565869884433E+00  2.712241229955E+00  2.865354789656E+00
  3.025349701153E+00  3.192348119209E+00  3.366452511307E+00  3.486510342249E+00
  3.609779888692E+00  3.736273134642E+00  3.865996139314E+00  3.998948584754E+00
  4.135123310329E+00  4.274505835125E+00  4.417073869485E+00  4.562796817115E+00
  4.711635269403E+00  4.863540493800E+00  5.018453918359E+00  5.176306614763E+00
  5.337018782428E+00  5.500499236541E+00  5.666644903132E+00  5.835340324613E+00
  6.006457179433E+00  6.179853819840E+00  6.355374831998E+00  6.532850622997E+00
  6.712097039572E+00  6.892915023633E+00  7.075090309936E+00  7.258393171500E+00
  7.442578218577E+00  7.627384257166E+00  7.812534213273E+00  7.997735129180E+00
  8.182678238125E+00  8.367039123805E+00  8.550477971104E+00  8.732639914347E+00
  8.913155489269E+00  9.091641194612E+00  9.267700169000E+00  9.440922988318E+00
  9.610888588333E+00  9.777165316708E+00  9.939312117852E+00  1.009687985326E+01
  1.024941275901E+01  1.039645004118E+01  1.053752760860E+01  1.067217994120E+01
  1.079994209093E+01  1.092035181039E+01  1.103295180309E+01  1.113729208736E+01
  1.123293246413E+01  1.131944507700E+01  1.139641705127E+01  1.146345319630E+01
  1.152017875403E+01  1.156624217435E+01  1.160131789612E+01  1.162510911096E+01
  1.163268880889E+01  1.163735048524E+01  1.163906632673E+01  1.163781081400E+01
  1.163356079888E+01  1.162629557949E+01  1.161599697299E+01  1.160264938561E+01
  1.158623987991E+01  1.156675823885E+01  1.154419702664E+01  1.151855164588E+01
  1.148982039096E+01  1.145800449747E+01  1.142310818728E+01  1.138513870912E+01
  1.134410637451E+01  1.130002458874E+01  1.125290987674E+01  1.120278190359E+01
  1.114966348959E+01  1.109358061958E+01  1.103456244643E+01  1.097264128855E+01
  1.090785262119E+01  1.084023506154E+01  1.076983034736E+01  1.069668330919E+01
  1.062084183598E+01  1.054235683408E+01  1.046128217954E+01  1.037767466380E+01
  1.029159393263E+01  1.020310241836E+01  1.011226526556E+01  1.001915025009E+01
  9.923827691677E+00  9.826370360122E+00  9.726853375232E+00  9.625354100678E+00
  9.521952031937E+00  9.416728678508E+00  9.309767440646E+00  9.201153480856E+00
  9.090973590414E+00  8.979316051220E+00  8.866270493281E+00  8.751927748190E+00
  8.636379698926E+00  8.519719126371E+00  8.402039552945E+00  8.283435083751E+00
  8.164000245673E+00  8.043829824867E+00  7.923018703097E+00  7.801661693388E+00
  7.679853375460E+00  7.557687931442E+00  7.435258982338E+00  7.312659425749E+00
  7.189981275340E+00  7.067315502539E+00  6.944751880967E+00  6.822378834073E+00
  6.700283286458E+00  6.578550519350E+00  6.457264030687E+00  6.336505400243E+00
  6.216354160229E+00  6.096887671765E+00  5.978181007617E+00  5.860306841549E+00
  5.743335344638E+00  5.627334088853E+00  5.512367958191E+00  5.398499067613E+00
  5.285786690005E+00  5.174287191361E+00  5.064053974334E+00  4.955137430282E+00
  4.847584899904E+00  4.741440642504E+00  4.636745813920E+00  4.533538453077E+00
  4.431853477132E+00  4.331722685112E+00  4.233174769925E+00  4.136235338581E+00
  4.040926940450E+00  3.947269103325E+00  3.855278377033E+00  3.764968384338E+00
  3.676349878803E+00  3.589430809305E+00  3.504216390824E+00  3.420709181157E+00
  3.338909163136E+00  3.258813831963E+00  3.180418287222E+00  3.103715329132E+00
  3.028695558606E+00  2.955347480646E+00  2.883657610631E+00  2.813610583024E+00
  2.745189262048E+00  2.678374853870E+00  2.613147019840E+00  2.549483990329E+00
  2.487362678751E+00  2.426758795319E+00  2.367646960135E+00  2.310000815207E+00
  2.253793135017E+00  2.198995935265E+00  2.145580579451E+00  2.093517882959E+00
  2.042778214338E+00  1.993331593499E+00  1.945147786565E+00  1.898196397125E+00
  1.852446953688E+00  1.807868993135E+00  1.764432140004E+00  1.722106181468E+00
  1.680861137871E+00  1.640667328735E+00  1.601495434171E+00  1.563316551618E+00
  1.526102247912E+00  1.489824606650E+00  1.454456270885E+00  1.419970481175E+00
  1.386341109045E+00  1.353542685927E+00  1.321550427688E+00  1.290340254828E+00
  1.259888808495E+00  1.230173462437E+00  1.201172331056E+00  1.172864273713E+00
  1.145228895470E+00  1.118246544445E+00  1.091898305972E+00  1.066165993763E+00
  1.041032138279E+00  1.016479972505E+00  9.924934153315E-01  9.690570526390E-01
  9.461561162862E-01  9.237764616434E-01  9.019045439427E-01  8.805273929902E-01
  8.596325867060E-01  8.392082236247E-01  8.192428945521E-01  7.997256495413E-01
  7.806459492919E-01  7.619936113475E-01  7.437587947246E-01  7.259319824964E-01
  7.085039647145E-01  6.914658211483E-01  6.748089039642E-01  6.585248204638E-01
  6.426054159991E-01  6.270427571795E-01  6.118291154844E-01  5.969569513881E-01
  5.824188990983E-01  5.682077519921E-01  5.543164488348E-01  5.407380609348E-01
  5.274657803309E-01  5.144929089861E-01  5.018128490902E-01  4.894190945182E-01
  4.773052234994E-01  4.654648997481E-01  4.538919044328E-01  4.425801839112E-01
  4.315238518844E-01  4.207171733809E-01  4.101545629915E-01  3.998305781811E-01
  3.897399141163E-01  3.798774003369E-01  3.702379989841E-01  3.608168014933E-01
  3.516090243910E-01  3.426100058303E-01  3.338152019680E-01  3.252201834530E-01
  3.168206319899E-01  3.086123369804E-01  3.005911922450E-01  2.927531928261E-01
  2.850944318705E-01  2.776110975964E-01  2.702994703402E-01  2.631559196864E-01
  2.561769016789E-01  2.493589561136E-01  2.426987039119E-01  2.361928445754E-01
  2.298381537183E-01  2.236314806803E-01  2.175697462155E-01  2.116499402588E-01
  2.058691197668E-01  2.002244066329E-01  1.947129856751E-01  1.893321026941E-01
  1.840790626021E-01  1.789512276187E-01  1.739460155331E-01  1.690608980321E-01
  1.642933990900E-01  1.596410934203E-01  1.551016049874E-01  1.506726055758E-01
  1.463518134153E-01  1.421369918614E-01  1.380259481277E-01  1.340165320695E-01
  1.301066350171E-01  1.262941886555E-01  1.225771639514E-01  1.189535701232E-01
  1.154214536543E-01  1.119788973470E-01  1.086240194157E-01  1.053549726182E-01
  1.021699434227E-01  9.906715121045E-02  9.604484751047E-02  9.310131526753E-02
  9.023486813973E-02  8.744384982562E-02  8.472663341920E-02  8.208162079156E-02
  7.950724199792E-02  7.700195470899E-02  7.456424366549E-02  7.219262015463E-02
  6.988562150769E-02  6.764181061754E-02  6.545977547526E-02  6.333812872476E-02
  6.127550723473E-02  5.927057168684E-02  5.732200617960E-02  5.542851784685E-02
  5.358883649035E-02  5.180171422558E-02  5.006592514019E-02  4.838026496437E-02
  4.674355075254E-02  4.515462057566E-02  4.361233322376E-02  4.211556791792E-02
  4.066322403136E-02  3.925422081892E-02  3.788749715465E-02  3.656201127684E-02
  3.527674054012E-02  3.403068117417E-02  3.282284804868E-02  3.165227444391E-02
  3.051801182676E-02  2.941912963172E-02  2.835471504639E-02  2.732387280131E-02
  2.632572496355E-02  2.535941073386E-02  2.442408624705E-02  2.351892437516E-02
  2.264311453324E-02  2.179586248742E-02  2.097639016490E-02  2.018393546571E-02
  1.941775207591E-02  1.867710928195E-02  1.796129178612E-02  1.726959952262E-02
  1.660134747434E-02  1.595586548986E-02  1.533249810076E-02  1.473060433889E-02
  1.414955755356E-02  1.358874522851E-02  1.304756879844E-02  1.252544346519E-02
  1.202179801332E-02  1.153607462506E-02  1.106772869462E-02  1.061622864184E-02
  1.018105572499E-02  9.761703852921E-03  9.357679396454E-03  8.968500998977E-03
  8.593699386393E-03  8.232817176370E-03  7.885408686964E-03  7.551039744677E-03
  7.229287492016E-03  6.919740194623E-03  6.621997048063E-03  6.335667984366E-03
  6.060373478414E-03  5.795744354278E-03  5.541421591619E-03  5.297056132259E-03
  5.062308687038E-03  4.836849543086E-03  4.620358371614E-03  4.412524036368E-03
  4.213044402847E-03  4.021626148425E-03  3.837984573489E-03  3.661843413724E-03
  3.492934653655E-03  3.330998341570E-03  3.175782405936E-03  3.027042473430E-03
  2.884541688670E-03  2.748050535780E-03  2.617346661867E-03  2.492214702519E-03
  2.372446109405E-03  2.257838980075E-03  2.148197890031E-03  2.043333727143E-03
  1.943063528501E-03  1.847210319728E-03  1.755602956857E-03  1.668075970794E-03
  1.584469414419E-03  1.504628712382E-03  1.428404513608E-03  1.355652546555E-03
  1.286233477243E-03  1.220012770076E-03  1.156860551461E-03  1.096651476244E-03
  1.039264596958E-03  9.845832358847E-04  9.324948599094E-04  8.828909581832E-04
  8.356669225511E-04  7.907219307407E-04  7.479588322832E-04  7.072840371402E-04
  6.686074070066E-04  6.318421492557E-04  5.969047134912E-04  5.637146906680E-04
  5.321947147412E-04  5.022703668022E-04  4.738700816578E-04  4.469250568073E-04
  4.213691637732E-04  3.971388617380E-04  3.741731134399E-04  3.524133032822E-04
  3.318031576063E-04  3.122886670832E-04  2.938180111760E-04  2.763414846264E-04
  2.598114259199E-04  2.441821476844E-04  2.294098689770E-04  2.154526494165E-04
  2.022703251186E-04  1.898244463914E-04  1.780782171523E-04  1.669964360247E-04
  1.565454390786E-04  1.466930441755E-04  1.374084968832E-04  1.286624179243E-04
  1.204267521254E-04  1.126747188328E-04  1.053807637642E-04  9.852051226395E-05
  9.207072393307E-05  8.600924860351E-05  8.031498362942E-05  7.496783246690E-05
  6.994866451563E-05  6.523927619595E-05  6.082235323571E-05  5.668143414156E-05
  5.280087483016E-05  4.916581439487E-05  4.576214198419E-05  4.257646476839E-05
  3.959607697115E-05  3.680892994334E-05  3.420360325625E-05  3.176927679195E-05
  2.949570380843E-05  2.737318495759E-05  2.539254323415E-05  2.354509983382E-05
  2.182265089904E-05  2.021744513093E-05  1.872216224602E-05  1.732989225669E-05
  1.603411555406E-05  1.482868377246E-05  1.370780141467E-05  1.266600821711E-05
  1.169816223458E-05  1.079942362404E-05  9.965239107131E-06  9.191327091591E-06
  8.473663431428E-06  7.808467806353E-06  7.192190700922E-06  6.621500964175E-06
  6.093273930775E-06  5.604580084892E-06  5.152674248369E-06  4.734985274975E-06
  4.349106232831E-06  3.992785057434E-06  3.663915657986E-06  3.360529460086E-06
  3.080787368167E-06  2.822972131426E-06  2.585481097323E-06  2.366819337124E-06
  2.165593128287E-06  1.980503778927E-06  1.810341779911E-06  1.653981270567E-06
  1.510374804364E-06  1.378548401298E-06  1.257596874127E-06  1.146679415991E-06
  1.045015437315E-06  9.518806403322E-07  8.666033199030E-07  7.885608797304E-07