<?xml version="1.0" encoding="UTF-8" ?>
<psml version="1.1" energy_unit="hartree" length_unit="bohr"
 uuid="16842e80-c73c-11ed-40de-e7737fa45069"
 xmlns="http://esl.cecam.org/PSML/ns/1.1">
<provenance creator="ONCVPSP-4.0.1+psml-4.0.1-76 (scalar-relativistic)"
 date="2023-03-20">
<annotation action="semilocal-pseudopotential-generation"
 action-cont="projectors-generation" />
<input-file name="oncvpsp-input">
<![CDATA[# atsym z nc nv iexc psfile
Bi 83 10 5 4 psp8
# n l f
1 0 2.0
2 0 2.0
2 1 6.0
3 0 2.0
3 1 6.0
3 2 10.0
4 0 2.0
4 1 6.0
4 2 10.0
4 3 14.0
5 0 2.0
5 1 6.0
5 2 10.0
6 0 2.0
6 1 3.0
# lmax
3
# l rc ep ncon nbas qcut
0 1.4 0.0 4 8 9.0
1 1.5 0.0 4 8 8.4
2 1.4 0.0 4 8 9.0
3 1.4 0.05 4 7 3.0
# lloc lpopt rc5 dvloc0
4 5 1.3 0.0
# l nproj debl
0 2 1.0
1 2 1.0
2 2 2.0
3 1 1.0
# icmod fcfact rcfact
3 6.0 1.34
# epsh1 epsh2 depsh
-12.0 12.0 0.02
# rlmax drl
6.0 0.01
 0
]]>
</input-file>
</provenance>
<pseudo-atom-spec atomic-label="Bi" atomic-number="83" z-pseudo="23"
 flavor="Hamann&apos;s oncvpsp" relativity="scalar" spin-dft="no"
 core-corrections="yes">
<annotation pseudo-energy="-217.452777376" cutoff_hint_low="35"
 cutoff_hint_normal="38" cutoff_hint_high="40" />
<exchange-correlation>
<annotation oncvpsp-xc-code="4" oncvpsp-xc-type="GGA -- Perdew-Burke-Ernzerhof" />
<libxc-info number-of-functionals="2">
<functional name="Perdew, Burke &amp; Ernzerhof (GGA)" type="exchange" id="101" />
<functional name="Perdew, Burke &amp; Ernzerhof (GGA)" type="correlation"
 id="130" />
</libxc-info>
</exchange-correlation>
<valence-configuration total-valence-charge="23">
<shell n="5" l="s" occupation="2" />
<shell n="5" l="p" occupation="6" />
<shell n="5" l="d" occupation="10" />
<shell n="6" l="s" occupation="2" />
<shell n="6" l="p" occupation="3" />
</valence-configuration>
</pseudo-atom-spec>
<grid npts="797">
<annotation type="sampled from oncvpsp log grid"
 recipe="r(i:1..N) = r1*exp(a*(i-1)) + r=0; resampled"
 recipe-cont="r1: scale; a: step" scale="0.602409638554E-05"
 step="0.598207167755E-02" delta="0.500000000000E-02" rmax="44.5607955135" />
<grid-data>
  0.000000000000E+00  5.012129011407E-03  1.003201111458E-02  1.506782937162E-02
  2.007954040567E-02  2.520443900873E-02  3.033992045555E-02  3.544556770789E-02
  4.067386970803E-02  4.584321924963E-02  5.105505642029E-02  5.618319747793E-02
  6.145768013755E-02  6.682637337210E-02  7.223066981575E-02  7.760637730078E-02
  8.288485819215E-02  8.799439425065E-02  9.341891376093E-02  9.858631635585E-02
  1.040395502509E-01  1.091395884759E-01  1.144896315292E-01  1.201019346943E-01
  1.252379264522E-01  1.305935517356E-01  1.361782028659E-01  1.420016738142E-01
  1.471910311898E-01  1.525700302030E-01  1.581456011822E-01  1.639249277201E-01
  1.699154559291E-01  1.750744572908E-01  1.803900971108E-01  1.858671312721E-01
  1.915104600564E-01  1.973251325287E-01  2.033163510548E-01  2.094894759552E-01
  2.145626543754E-01  2.197586892739E-01  2.250805558497E-01  2.305313013514E-01
  2.361140468228E-01  2.418319888892E-01  2.476884015884E-01  2.536866382450E-01
  2.598301333908E-01  2.661224047310E-01  2.725670551586E-01  2.791677748175E-01
  2.842230051841E-01  2.893697767542E-01  2.946097471755E-01  2.999446041131E-01
  3.053760657924E-01  3.109058815530E-01  3.165358324118E-01  3.222677316369E-01
  3.281034253312E-01  3.340447930274E-01  3.400937482932E-01  3.462522393476E-01
  3.525222496882E-01  3.589057987303E-01  3.654049424574E-01  3.720217740829E-01
  3.787584247247E-01  3.856170640914E-01  3.925999011812E-01  3.997091849934E-01
  4.069472052525E-01  4.143162931458E-01  4.218188220744E-01  4.268958334169E-01
  4.320339516679E-01  4.372339123101E-01  4.424964596787E-01  4.478223470674E-01
  4.532123368367E-01  4.586672005229E-01  4.641877189484E-01  4.697746823336E-01
  4.754288904102E-01  4.811511525352E-01  4.869422878071E-01  4.928031251831E-01
  4.987345035978E-01  5.047372720831E-01  5.108122898899E-01  5.169604266110E-01
  5.231825623057E-01  5.294795876256E-01  5.358524039423E-01  5.423019234761E-01
  5.488290694271E-01  5.554347761067E-01  5.621199890719E-01  5.688856652604E-01
  5.757327731275E-01  5.826622927849E-01  5.896752161408E-01  5.967725470423E-01
  6.039553014185E-01  6.112245074264E-01  6.185812055977E-01  6.260264489883E-01
  6.335613033283E-01  6.411868471752E-01  6.489041720678E-01  6.567143826828E-01
  6.646185969928E-01  6.726179464262E-01  6.807135760294E-01  6.889066446305E-01
  6.971983250052E-01  7.055898040450E-01  7.140822829265E-01  7.226769772838E-01
  7.313751173824E-01  7.401779482952E-01  7.490867300809E-01  7.581027379641E-01
  7.672272625183E-01  7.764616098499E-01  7.858071017861E-01  7.952650760632E-01
  8.048368865187E-01  8.145239032848E-01  8.243275129847E-01  8.342491189310E-01
  8.392546136446E-01  8.442901413265E-01  8.493558821744E-01  8.544520174675E-01
  8.595787295723E-01  8.647362019497E-01  8.699246191614E-01  8.751441668764E-01
  8.803950318777E-01  8.856774020689E-01  8.909914664813E-01  8.963374152802E-01
  9.017154397719E-01  9.071257324105E-01  9.125684868050E-01  9.180438977258E-01
  9.235521611122E-01  9.290934740789E-01  9.346680349233E-01  9.402760431329E-01
  9.459176993917E-01  9.515932055880E-01  9.573027648215E-01  9.630465814105E-01
  9.688248608989E-01  9.746378100643E-01  9.804856369247E-01  9.863685507463E-01
  9.922867620507E-01  9.982404826230E-01  1.004229925519E+00  1.010255305072E+00
  1.016316836902E+00  1.022414737924E+00  1.028549226351E+00  1.034720521709E+00
  1.040928844840E+00  1.047174417909E+00  1.053457464416E+00  1.059778209203E+00
  1.066136878458E+00  1.072533699729E+00  1.078968901927E+00  1.085442715339E+00
  1.091955371631E+00  1.098507103860E+00  1.105098146484E+00  1.111728735362E+00
  1.118399107775E+00  1.125109502421E+00  1.131860159436E+00  1.138651320392E+00
  1.145483228315E+00  1.152356127685E+00  1.159270264451E+00  1.166225886037E+00
  1.173223241354E+00  1.180262580802E+00  1.187344156287E+00  1.194468221224E+00
  1.201635030552E+00  1.208844840735E+00  1.216097909779E+00  1.223394497238E+00
  1.230734864221E+00  1.238119273407E+00  1.245547989047E+00  1.253021276982E+00
  1.260539404643E+00  1.268102641071E+00  1.275711256918E+00  1.283365524459E+00
  1.291065717606E+00  1.298812111912E+00  1.306604984583E+00  1.314444614491E+00
  1.322331282178E+00  1.330265269871E+00  1.338246861490E+00  1.346276342659E+00
  1.354354000715E+00  1.362480124719E+00  1.370655005467E+00  1.378878935500E+00
  1.387152209113E+00  1.395475122368E+00  1.403847973102E+00  1.412271060941E+00
  1.420744687306E+00  1.429269155430E+00  1.437844770363E+00  1.446471838985E+00
  1.455150670019E+00  1.463881574039E+00  1.472664863483E+00  1.481500852664E+00
  1.490389857780E+00  1.499332196927E+00  1.508328190108E+00  1.517378159249E+00
  1.526482428204E+00  1.535641322774E+00  1.544855170710E+00  1.554124301734E+00
  1.563449047545E+00  1.572829741830E+00  1.582266720281E+00  1.591760320603E+00
  1.601310882526E+00  1.610918747822E+00  1.620584260309E+00  1.630307765870E+00
  1.640089612466E+00  1.649930150140E+00  1.659829731041E+00  1.669788709427E+00
  1.679807441684E+00  1.689886286334E+00  1.700025604052E+00  1.710225757676E+00
  1.720487112223E+00  1.730810034896E+00  1.741194895105E+00  1.751642064476E+00
  1.762151916863E+00  1.772724828364E+00  1.783361177334E+00  1.794061344398E+00
  1.804825712464E+00  1.815654666739E+00  1.826548594740E+00  1.837507886308E+00
  1.848532933626E+00  1.859624131228E+00  1.870781876015E+00  1.882006567271E+00
  1.893298606675E+00  1.904658398315E+00  1.916086348705E+00  1.927582866797E+00
  1.939148363998E+00  1.950783254182E+00  1.962487953707E+00  1.974262881429E+00
  1.986108458718E+00  1.998025109470E+00  2.010013260127E+00  2.022073339688E+00
  2.034205779726E+00  2.046411014404E+00  2.058689480490E+00  2.071041617373E+00
  2.083467867078E+00  2.095968674280E+00  2.108544486326E+00  2.121195753244E+00
  2.133922927763E+00  2.146726465330E+00  2.159606824122E+00  2.172564465067E+00
  2.185599851857E+00  2.198713450968E+00  2.211905731674E+00  2.225177166064E+00
  2.238528229060E+00  2.251959398435E+00  2.265471154825E+00  2.279063981754E+00
  2.292738365645E+00  2.306494795839E+00  2.320333764614E+00  2.334255767201E+00
  2.348261301805E+00  2.362350869615E+00  2.376524974833E+00  2.390784124682E+00
  2.405128829430E+00  2.419559602407E+00  2.434076960021E+00  2.448681421781E+00
  2.463373510312E+00  2.478153751374E+00  2.493022673882E+00  2.507980809925E+00
  2.523028694785E+00  2.538166866954E+00  2.553395868155E+00  2.568716243364E+00
  2.584128540824E+00  2.599633312069E+00  2.615231111942E+00  2.630922498613E+00
  2.646708033605E+00  2.662588281807E+00  2.678563811498E+00  2.694635194367E+00
  2.710803005533E+00  2.727067823566E+00  2.743430230507E+00  2.759890811890E+00
  2.776450156762E+00  2.793108857702E+00  2.809867510849E+00  2.826726715914E+00
  2.843687076209E+00  2.860749198666E+00  2.877913693858E+00  2.895181176022E+00
  2.912552263078E+00  2.930027576656E+00  2.947607742116E+00  2.965293388569E+00
  2.983085148900E+00  3.000983659794E+00  3.018989561752E+00  3.037103499123E+00
  3.055326120118E+00  3.073658076838E+00  3.092100025299E+00  3.110652625451E+00
  3.129316541204E+00  3.148092440451E+00  3.166980995094E+00  3.185982881064E+00
  3.205098778351E+00  3.224329371021E+00  3.243675347247E+00  3.263137399330E+00
  3.282716223726E+00  3.302412521069E+00  3.322226996195E+00  3.342160358172E+00
  3.362213320321E+00  3.382386600243E+00  3.402680919845E+00  3.423097005364E+00
  3.443635587396E+00  3.464297400920E+00  3.485083185326E+00  3.505993684438E+00
  3.527029646545E+00  3.548191824424E+00  3.569480975370E+00  3.590897861223E+00
  3.612443248390E+00  3.634117907880E+00  3.655922615328E+00  3.677858151019E+00
  3.699925299926E+00  3.722124851725E+00  3.744457600836E+00  3.766924346441E+00
  3.789525892519E+00  3.812263047874E+00  3.835136626162E+00  3.858147445919E+00
  3.881296330594E+00  3.904584108578E+00  3.928011613229E+00  3.951579682908E+00
  3.975289161006E+00  3.999140895972E+00  4.023135741348E+00  4.047274555796E+00
  4.071558203131E+00  4.095987552349E+00  4.120563477663E+00  4.145286858529E+00
  4.170158579681E+00  4.195179531159E+00  4.220350608346E+00  4.245672711996E+00
  4.271146748268E+00  4.296773628757E+00  4.322554270530E+00  4.348489596153E+00
  4.374580533730E+00  4.400828016932E+00  4.427232985034E+00  4.453796382944E+00
  4.480519161242E+00  4.507402276209E+00  4.534446689867E+00  4.561653370006E+00
  4.589023290226E+00  4.616557429967E+00  4.644256774547E+00  4.672122315194E+00
  4.700155049085E+00  4.728355979380E+00  4.756726115256E+00  4.785266471948E+00
  4.813978070779E+00  4.842861939204E+00  4.871919110839E+00  4.901150625504E+00
  4.930557529257E+00  4.960140874433E+00  4.989901719679E+00  5.019841129998E+00
  5.049960176778E+00  5.080259937838E+00  5.110741497465E+00  5.141405946450E+00
  5.172254382129E+00  5.203287908421E+00  5.234507635872E+00  5.265914681687E+00
  5.297510169777E+00  5.329295230796E+00  5.361271002181E+00  5.393438628194E+00
  5.425799259963E+00  5.458354055523E+00  5.491104179856E+00  5.524050804935E+00
  5.557195109765E+00  5.590538280423E+00  5.624081510106E+00  5.657825999166E+00
  5.691772955161E+00  5.725923592892E+00  5.760279134450E+00  5.794840809257E+00
  5.829609854112E+00  5.864587513237E+00  5.899775038316E+00  5.935173688546E+00
  5.970784730677E+00  6.006609439061E+00  6.042649095696E+00  6.078904990270E+00
  6.115378420212E+00  6.152070690733E+00  6.188983114877E+00  6.226117013566E+00
  6.263473715648E+00  6.301054557942E+00  6.338860885289E+00  6.376894050601E+00
  6.415155414905E+00  6.453646347394E+00  6.492368225479E+00  6.531322434831E+00
  6.570510369440E+00  6.609933431657E+00  6.649593032247E+00  6.689490590440E+00
  6.729627533983E+00  6.770005299187E+00  6.810625330982E+00  6.851489082968E+00
  6.892598017466E+00  6.933953605571E+00  6.975557327204E+00  7.017410671167E+00
  7.059515135194E+00  7.101872226005E+00  7.144483459361E+00  7.187350360118E+00
  7.230474462278E+00  7.273857309052E+00  7.317500452906E+00  7.361405455624E+00
  7.405573888358E+00  7.450007331688E+00  7.494707375678E+00  7.539675619932E+00
  7.584913673651E+00  7.630423155693E+00  7.676205694628E+00  7.722262928795E+00
  7.768596506368E+00  7.815208085406E+00  7.862099333919E+00  7.909271929922E+00
  7.956727561502E+00  8.004467926871E+00  8.052494734432E+00  8.100809702839E+00
  8.149414561056E+00  8.198311048422E+00  8.247500914712E+00  8.296985920201E+00
  8.346767835722E+00  8.396848442736E+00  8.447229533393E+00  8.497912910593E+00
  8.548900388057E+00  8.600193790385E+00  8.651794953127E+00  8.703705722846E+00
  8.755927957183E+00  8.808463524926E+00  8.861314306076E+00  8.914482191912E+00
  8.967969085064E+00  9.021776899574E+00  9.075907560972E+00  9.130363006337E+00
  9.185145184375E+00  9.240256055482E+00  9.295697591815E+00  9.351471777365E+00
  9.407580608030E+00  9.464026091678E+00  9.520810248228E+00  9.577935109717E+00
  9.635402720376E+00  9.693215136698E+00  9.751374427518E+00  9.809882674083E+00
  9.868741970128E+00  9.927954421948E+00  9.987522148480E+00  1.004744728137E+01
  1.010773196506E+01  1.016837835685E+01  1.022938862699E+01  1.029076495875E+01
  1.035250954851E+01  1.041462460580E+01  1.047711235343E+01  1.053997502755E+01
  1.060321487772E+01  1.066683416698E+01  1.073083517198E+01  1.079522018302E+01
  1.085999150411E+01  1.092515145314E+01  1.099070236186E+01  1.105664657603E+01
  1.112298645549E+01  1.118972437422E+01  1.125686272046E+01  1.132440389679E+01
  1.139235032017E+01  1.146070442209E+01  1.152946864862E+01  1.159864546051E+01
  1.166823733328E+01  1.173824675728E+01  1.180867623782E+01  1.187952829525E+01
  1.195080546502E+01  1.202251029781E+01  1.209464535959E+01  1.216721323175E+01
  1.224021651114E+01  1.231365781021E+01  1.238753975707E+01  1.246186499561E+01
  1.253663618559E+01  1.261185600270E+01  1.268752713872E+01  1.276365230155E+01
  1.284023421536E+01  1.291727562065E+01  1.299477927437E+01  1.307274795002E+01
  1.315118443772E+01  1.323009154435E+01  1.330947209361E+01  1.338932892617E+01
  1.346966489973E+01  1.355048288913E+01  1.363178578646E+01  1.371357650118E+01
  1.379585796019E+01  1.387863310795E+01  1.396190490660E+01  1.404567633604E+01
  1.412995039406E+01  1.421473009642E+01  1.430001847700E+01  1.438581858786E+01
  1.447213349939E+01  1.455896630038E+01  1.464632009819E+01  1.473419801878E+01
  1.482260320689E+01  1.491153882613E+01  1.500100805909E+01  1.509101410744E+01
  1.518156019209E+01  1.527264955324E+01  1.536428545056E+01  1.545647116326E+01
  1.554920999024E+01  1.564250525018E+01  1.573636028168E+01  1.583077844337E+01
  1.592576311403E+01  1.602131769272E+01  1.611744559887E+01  1.621415027247E+01
  1.631143517410E+01  1.640930378515E+01  1.650775960786E+01  1.660680616550E+01
  1.670644700250E+01  1.680668568451E+01  1.690752579862E+01  1.700897095341E+01
  1.711102477913E+01  1.721369092781E+01  1.731697307337E+01  1.742087491181E+01
  1.752540016128E+01  1.763055256225E+01  1.773633587763E+01  1.784275389289E+01
  1.794981041625E+01  1.805750927875E+01  1.816585433442E+01  1.827484946042E+01
  1.838449855719E+01  1.849480554853E+01  1.860577438182E+01  1.871740902811E+01
  1.882971348228E+01  1.894269176317E+01  1.905634791375E+01  1.917068600124E+01
  1.928571011724E+01  1.940142437795E+01  1.951783292421E+01  1.963493992176E+01
  1.975274956129E+01  1.987126605866E+01  1.999049365501E+01  2.011043661694E+01
  2.023109923664E+01  2.035248583206E+01  2.047460074705E+01  2.059744835154E+01
  2.072103304165E+01  2.084535923990E+01  2.097043139534E+01  2.109625398371E+01
  2.122283150761E+01  2.135016849666E+01  2.147826950764E+01  2.160713912468E+01
  2.173678195943E+01  2.186720265119E+01  2.199840586709E+01  2.213039630230E+01
  2.226317868011E+01  2.239675775219E+01  2.253113829870E+01  2.266632512850E+01
  2.280232307927E+01  2.293913701774E+01  2.307677183985E+01  2.321523247089E+01
  2.335452386571E+01  2.349465100891E+01  2.363561891496E+01  2.377743262845E+01
  2.392009722422E+01  2.406361780757E+01  2.420799951441E+01  2.435324751150E+01
  2.449936699657E+01  2.464636319855E+01  2.479424137774E+01  2.494300682600E+01
  2.509266486696E+01  2.524322085616E+01  2.539468018130E+01  2.554704826239E+01
  2.570033055196E+01  2.585453253527E+01  2.600965973048E+01  2.616571768887E+01
  2.632271199500E+01  2.648064826697E+01  2.663953215657E+01  2.679936934951E+01
  2.696016556561E+01  2.712192655900E+01  2.728465811836E+01  2.744836606707E+01
  2.761305626347E+01  2.777873460105E+01  2.794540700866E+01  2.811307945071E+01
  2.828175792741E+01  2.845144847498E+01  2.862215716583E+01  2.879389010882E+01
  2.896665344947E+01  2.914045337017E+01  2.931529609039E+01  2.949118786693E+01
  2.966813499414E+01  2.984614380410E+01  3.002522066693E+01  3.020537199093E+01
  3.038660422287E+01  3.056892384821E+01  3.075233739130E+01  3.093685141565E+01
  3.112247252414E+01  3.130920735929E+01  3.149706260344E+01  3.168604497906E+01
  3.187616124894E+01  3.206741821643E+01  3.225982272573E+01  3.245338166208E+01
  3.264810195206E+01  3.284399056377E+01  3.304105450715E+01  3.323930083419E+01
  3.343873663920E+01  3.363936905903E+01  3.384120527339E+01  3.404425250503E+01
  3.424851802006E+01  3.445400912818E+01  3.466073318295E+01  3.486869758205E+01
  3.507790976754E+01  3.528837722614E+01  3.550010748950E+01  3.571310813444E+01
  3.592738678324E+01  3.614295110394E+01  3.635980881057E+01  3.657796766343E+01
  3.679743546941E+01  3.701822008223E+01  3.724032940272E+01  3.746377137914E+01
  3.768855400741E+01  3.791468533146E+01  3.814217344344E+01  3.837102648411E+01
  3.860125264301E+01  3.883286015887E+01  3.906585731982E+01  3.930025246374E+01
  3.953605397852E+01  3.977327030239E+01  4.001190992421E+01  4.025198138375E+01
  4.049349327206E+01  4.073645423169E+01  4.098087295708E+01  4.122675819482E+01
  4.147411874399E+01  4.172296345645E+01  4.197330123719E+01  4.222514104462E+01
  4.247849189088E+01  4.273336284223E+01  4.298976301928E+01  4.324770159740E+01
  4.350718780698E+01  4.376823093382E+01  4.403084031943E+01  4.429502536134E+01
  4.456079551351E+01
</grid-data>
</grid>
<valence-charge total-charge="23" is-unscreening-charge="yes"
 rescaled-to-z-pseudo="no">
<radfunc>
<data npts="797">
  5.709422343255E+00  5.712752434552E+00  5.722762357876E+00  5.739512830822E+00
  5.762849516880E+00  5.793583595501E+00  5.831340420914E+00  5.875772341372E+00
  5.928381559739E+00  5.987454209812E+00  6.054096722299E+00  6.126591031603E+00
  6.208292477450E+00  6.298858832402E+00  6.397539149785E+00  6.503140557586E+00
  6.614018080783E+00  6.728091849169E+00  6.856415974236E+00  6.985527166322E+00
  7.128997916689E+00  7.269834030930E+00  7.424433908847E+00  7.594095278962E+00
  7.756008848168E+00  7.931548501904E+00  8.121804364603E+00  8.327942022368E+00
  8.518212614141E+00  8.721893834715E+00  8.939859512248E+00  9.173027541860E+00
  9.422359576282E+00  9.643207194920E+00  9.876579817359E+00  1.012309941690E+01
  1.038340533260E+01  1.065815240309E+01  1.094800858394E+01  1.125365196590E+01
  1.150999336813E+01  1.177722829904E+01  1.205570751626E+01  1.234577889617E+01
  1.264778514857E+01  1.296206120801E+01  1.328893126923E+01  1.362870543257E+01
  1.398167592322E+01  1.434811284673E+01  1.472825944223E+01  1.512232679392E+01
  1.542711851892E+01  1.573989582605E+01  1.606069987018E+01  1.638955426482E+01
  1.672646315953E+01  1.707140918761E+01  1.742435128128E+01  1.778522235176E+01
  1.815392683317E+01  1.853033809009E+01  1.891429569003E+01  1.930560254383E+01
  1.970402191882E+01  2.010927433173E+01  2.052103433103E+01  2.093892718112E+01
  2.136252546382E+01  2.179134561663E+01  2.222484443069E+01  2.266241553601E+01
  2.310338590637E+01  2.354701242111E+01  2.399247852692E+01  2.429004009643E+01
  2.458773974839E+01  2.488527720194E+01  2.518233574211E+01  2.547858191258E+01
  2.577366524425E+01  2.606721802413E+01  2.635885510985E+01  2.664817379469E+01
  2.693475372878E+01  2.721815690219E+01  2.749792769563E+01  2.777359300504E+01
  2.804466244632E+01  2.831062864646E+01  2.857096762771E+01  2.882513929135E+01
  2.907258800747E+01  2.931274331745E+01  2.954502075552E+01  2.976882279548E+01
  2.998353992879E+01  3.018855187955E+01  3.038322896154E+01  3.056693358221E+01
  3.073902189748E+01  3.089884562087E+01  3.104575398925E+01  3.117909588698E+01
  3.129822212852E+01  3.140248789892E+01  3.149125534984E+01  3.156389634743E+01
  3.161979536667E+01  3.165835252507E+01  3.167898674669E+01  3.168113904533E+01
  3.166427591386E+01  3.162789280421E+01  3.157151768035E+01  3.149471462415E+01
  3.139708747191E+01  3.127828345659E+01  3.113799682870E+01  3.097597242653E+01
  3.079200916411E+01  3.058596340345E+01  3.035775217576E+01  3.010735621492E+01
  2.983482276510E+01  2.954026812386E+01  2.922387988150E+01  2.888591881758E+01
  2.852672041627E+01  2.814669596328E+01  2.774633318910E+01  2.732619642596E+01
  2.710891002080E+01  2.688692624886E+01  2.666033694731E+01  2.642923857538E+01
  2.619373215517E+01  2.595392320343E+01  2.570992165408E+01  2.546184177155E+01
  2.520980205489E+01  2.495392513262E+01  2.469433764851E+01  2.443117013820E+01
  2.416455689691E+01  2.389463583831E+01  2.362154834470E+01  2.334543910885E+01
  2.306645596749E+01  2.278474972702E+01  2.250047398145E+01  2.221378492313E+01
  2.192484114654E+01  2.163380344548E+01  2.134083460421E+01  2.104609918292E+01
  2.074976329796E+01  2.045199439745E+01  2.015296103272E+01  1.985283262612E+01
  1.955177923581E+01  1.924997131808E+01  1.894757948783E+01  1.864477427777E+01
  1.834172589696E+01  1.803860398947E+01  1.773557739343E+01  1.743281390155E+01
  1.713048002333E+01  1.682874074983E+01  1.652775932149E+01  1.622769699964E+01
  1.592871284223E+01  1.563096348436E+01  1.533460292423E+01  1.503978231483E+01
  1.474664976201E+01  1.445535012938E+01  1.416602485035E+01  1.387881174783E+01
  1.359384486187E+01  1.331125428552E+01  1.303116600938E+01  1.275370177484E+01
  1.247897893637E+01  1.220711033304E+01  1.193820416931E+01  1.167236390532E+01
  1.140968815659E+01  1.115027060333E+01  1.089419990926E+01  1.064155964993E+01
  1.039242825057E+01  1.014687893331E+01  9.904979673712E+00  9.666793166533E+00
  9.432376800609E+00  9.201782642688E+00  8.975057430128E+00  8.752242572302E+00
  8.533374160593E+00  8.318482986833E+00  8.107594570079E+00  7.900729191597E+00
  7.697901937955E+00  7.499122752131E+00  7.304396492556E+00  7.113723000020E+00
  6.927097172405E+00  6.744509047244E+00  6.565943892157E+00  6.391382303346E+00
  6.220800312066E+00  6.054169498280E+00  5.891457111598E+00  5.732626200874E+00
  5.577635751737E+00  5.426440832168E+00  5.278992746015E+00  5.135239294167E+00
  4.995125453817E+00  4.858594285485E+00  4.725587189440E+00  4.596043949889E+00
  4.469902935147E+00  4.347101238511E+00  4.227574827945E+00  4.111258692040E+00
  3.998086984089E+00  3.887993164041E+00  3.780910138324E+00  3.676770444332E+00
  3.575506617046E+00  3.477051652985E+00  3.381339072551E+00  3.288302987148E+00
  3.197878156589E+00  3.110000042899E+00  3.024604859985E+00  2.941629619373E+00
  2.861012172155E+00  2.782691247257E+00  2.706606486170E+00  2.632698474264E+00
  2.560908768828E+00  2.491179923950E+00  2.423455512384E+00  2.357680144521E+00
  2.293799484594E+00  2.231760264249E+00  2.171510293605E+00  2.112998469920E+00
  2.056174783995E+00  2.000990324425E+00  1.947397279822E+00  1.895348939122E+00
  1.844799690082E+00  1.795705016088E+00  1.748021491364E+00  1.701706774706E+00
  1.656719601817E+00  1.613019776365E+00  1.570568159834E+00  1.529326660280E+00
  1.489258220070E+00  1.450326802676E+00  1.412497378639E+00  1.375735910740E+00
  1.340009338487E+00  1.305285561971E+00  1.271533425160E+00  1.238722698708E+00
  1.206824062328E+00  1.175809086803E+00  1.145650215671E+00  1.116320746660E+00
  1.087794812909E+00  1.060047364028E+00  1.033054147038E+00  1.006791687245E+00
  9.812372690729E-01  9.563689169042E-01  9.321653759566E-01  9.086060932346E-01
  8.856711985811E-01  8.633414858613E-01  8.415983943026E-01  8.204239900165E-01
  7.998009477243E-01  7.797125327066E-01  7.601425829963E-01  7.410754918308E-01
  7.224961903804E-01  7.043901307650E-01  6.867432693725E-01  6.695420504895E-01
  6.527733902531E-01  6.364246609335E-01  6.204836755533E-01  6.049386728488E-01
  5.897783025805E-01  5.749916111931E-01  5.605680278310E-01  5.464973507092E-01
  5.327697338407E-01  5.193756741222E-01  5.063059987752E-01  4.935518531434E-01
  4.811046888431E-01  4.689562522650E-01  4.570985734238E-01  4.455239551525E-01
  4.342249626370E-01  4.231944132872E-01  4.124253669392E-01  4.019111163836E-01
  3.916451782145E-01  3.816212839942E-01  3.718333717260E-01  3.622755776303E-01
  3.529422282172E-01  3.438278326491E-01  3.349270753864E-01  3.262348091095E-01
  3.177460479111E-01  3.094559607505E-01  3.013598651640E-01  2.934532212324E-01
  2.857316257561E-01  2.781908067165E-01  2.708266179305E-01  2.636350339344E-01
  2.566121450815E-01  2.497541528477E-01  2.430573653359E-01  2.365181929754E-01
  2.301331444074E-01  2.238988225512E-01  2.178119208449E-01  2.118692196536E-01
  2.060675828390E-01  2.004039544854E-01  1.948753557746E-01  1.894788820053E-01
  1.842116997505E-01  1.790710441478E-01  1.740542163167E-01  1.691585808991E-01
  1.643815637154E-01  1.597206495339E-01  1.551733799469E-01  1.507373513497E-01
  1.464102130177E-01  1.421896652768E-01  1.380734577641E-01  1.340593877733E-01
  1.301452986819E-01  1.263290784560E-01  1.226086582288E-01  1.189820109497E-01
  1.154471501005E-01  1.120021284751E-01  1.086450370195E-01  1.053740037298E-01
  1.021871926043E-01  9.908280264808E-02  9.605906692560E-02  9.311425166100E-02
  9.024665538184E-02  8.745460810482E-02  8.473647056104E-02  8.209063345869E-02
  7.951551678110E-02  7.700956911830E-02  7.457126703017E-02  7.219911443947E-02
  6.989164205310E-02  6.764740680997E-02  6.546499135402E-02  6.334300353100E-02
  6.128007590750E-02  5.927486531869E-02  5.732605240574E-02  5.543234121751E-02
  5.359245879932E-02  5.180515480602E-02  5.006920113073E-02  4.838339154829E-02
  4.674654137255E-02  4.515748712668E-02  4.361508622573E-02  4.211821667059E-02
  4.066577675285E-02  3.925668476962E-02  3.788987874787E-02  3.656431617758E-02
  3.527897375318E-02  3.403284712259E-02  3.282495064352E-02  3.165431714633E-02
  3.051999770310E-02  2.942106140238E-02  2.835659512915E-02  2.732570334959E-02
  2.632750790030E-02  2.536114778141E-02  2.442577895346E-02  2.352057413740E-02
  2.264472261754E-02  2.179743004713E-02  2.097791825617E-02  2.018542506114E-02
  1.941920407647E-02  1.867852452741E-02  1.796267106404E-02  1.727094357620E-02
  1.660265700914E-02  1.595714117965E-02  1.533374059251E-02  1.473181425703E-02
  1.415073550367E-02  1.358989180034E-02  1.304868456857E-02  1.252652899921E-02
  1.202285386760E-02  1.153710134829E-02  1.106872682904E-02  1.061719872417E-02
  1.018199828726E-02  9.762619423078E-03  9.358568498773E-03  8.969364154419E-03
  8.594537112820E-03  8.233629988669E-03  7.886197097101E-03  7.551804261689E-03
  7.230028621947E-03  6.920458440423E-03  6.622692909452E-03  6.336341957672E-03
  6.061026056394E-03  5.796376025920E-03  5.542032841942E-03  5.297647442099E-03
  5.062880532838E-03  4.837402396684E-03  4.620892700035E-03  4.413040301621E-03
  4.213543061724E-03  4.022107652315E-03  3.838449368195E-03  3.662291939291E-03
  3.493367344209E-03  3.331415625164E-03  3.176184704415E-03  3.027430202294E-03
  2.884915256960E-03  2.748410345969E-03  2.617693109763E-03  2.492548177177E-03
  2.372766993053E-03  2.258147648049E-03  2.148494710714E-03  2.043619061929E-03
  1.943337731747E-03  1.847473738735E-03  1.755855931849E-03  1.668318834903E-03
  1.584702493690E-03  1.504852325773E-03  1.428618973004E-03  1.355858156787E-03
  1.286430536118E-03  1.220201568402E-03  1.157041373092E-03  1.096824598123E-03
  1.039430289166E-03  9.847417616922E-04  9.326464758411E-04  8.830359140786E-04
  8.358054616337E-04  7.908542896898E-04  7.480852413100E-04  7.074047200668E-04
  6.687225813488E-04  6.319520263082E-04  5.970094984162E-04  5.638145825858E-04
  5.322899068237E-04  5.023610463679E-04  4.739564302695E-04  4.470072503711E-04
  4.214473726392E-04  3.972132508024E-04  3.742438422487E-04  3.524805261354E-04
  3.318670236636E-04  3.123493204700E-04  2.938755910907E-04  2.763961254473E-04
  2.598632573134E-04  2.442312947126E-04  2.294564522059E-04  2.154967850242E-04
  2.023121250028E-04  1.898640182775E-04  1.781156646999E-04  1.670318589350E-04
  1.565789332001E-04  1.467247016095E-04  1.374384060884E-04  1.286906638206E-04
  1.204534161963E-04  1.126998792275E-04  1.054044953977E-04  9.854288691652E-05
  9.209181034798E-05  8.602911258383E-05  8.033368813310E-05  7.498543770041E-05
  6.996522802609E-05  6.525485296163E-05  6.083699575488E-05  5.669519251967E-05
  5.281379686526E-05  4.917794566131E-05  4.577352591448E-05  4.258714273327E-05
  3.960608835781E-05  3.681831223177E-05  3.421239209373E-05  3.177750606564E-05
  2.950340571604E-05  2.738039007622E-05  2.539928058717E-05  2.355139695588E-05
  2.182853389916E-05  2.022293875373E-05  1.872728993110E-05  1.733467619611E-05
  1.603857674798E-05  1.483284208299E-05  1.371167561790E-05  1.266961605335E-05
  1.170152045690E-05  1.080254804498E-05  9.968144643831E-06  9.194027809186E-06
  8.476172584826E-06  7.810797880408E-06  7.194353449043E-06  6.623507445399E-06
  6.095134545344E-06  5.606304608367E-06  5.154271864328E-06  4.736464606313E-06
  4.350475371724E-06  3.994051593987E-06  3.665086707610E-06  3.361611689644E-06
  3.081787020928E-06  2.823895050857E-06  2.586332749770E-06  2.367604833408E-06
  2.166317244264E-06  1.981170975035E-06  1.810956219754E-06  1.654546838570E-06
  1.510895122521E-06  1.379026845070E-06  1.258036587507E-06  1.147083325772E-06