Bi    ONCVPSP-4.0.1  r_core=   1.40385   1.50833   1.40385   1.40385
83.0000     23.0000      230320    zatom,zion,pspd
8      11   3     4   600     0    pspcod,pspxc,lmax,lloc,mmax,r2well
5.99000000  6.00000000  0.00000000    rchrg fchrg qchrg
2     2     2     1     0    nproj
1     1           extension_switch
0                         1.5802889322781E+01  2.0795642977808E+00
1  0.0000000000000E+00  3.3702284296666E-09 -8.6111224262275E-09
2  1.0000000000000E-02  7.8374381729985E-02 -8.3654069413583E-03
3  2.0000000000000E-02  1.5663433892118E-01 -1.6802613467209E-02
4  3.0000000000000E-02  2.3466405257636E-01 -2.5379196249167E-02
5  4.0000000000000E-02  3.1234495513710E-01 -3.4154389129675E-02
6  5.0000000000000E-02  3.8955445620315E-01 -4.3175166925711E-02
7  6.0000000000000E-02  4.6616478578081E-01 -5.2472629178293E-02
8  7.0000000000000E-02  5.4204199017510E-01 -6.2058773448057E-02
9  8.0000000000000E-02  6.1704511226967E-01 -7.1923739146083E-02
10  9.0000000000000E-02  6.9102558386275E-01 -8.2033592477421E-02
11  1.0000000000000E-01  7.6382685303118E-01 -9.2328711086183E-02
12  1.1000000000000E-01  8.3528426427980E-01 -1.0272281368408E-01
13  1.2000000000000E-01  9.0522520361024E-01 -1.1310266560516E-01
14  1.3000000000000E-01  9.7346951473214E-01 -1.2332847616847E-01
15  1.4000000000000E-01  1.0398301865669E+00 -1.3323498827238E-01
16  1.5000000000000E-01  1.1041143060896E+00 -1.4263324512530E-01
17  1.6000000000000E-01  1.1661242645518E+00 -1.5131300377396E-01
18  1.7000000000000E-01  1.2256591993485E+00 -1.5904575045537E-01
19  1.8000000000000E-01  1.2825166483752E+00 -1.6558825909138E-01
20  1.9000000000000E-01  1.3364943887662E+00 -1.7068662176798E-01
21  2.0000000000000E-01  1.3873924275347E+00 -1.7408066906951E-01
22  2.1000000000000E-01  1.4350151079380E+00 -1.7550868891697E-01
23  2.2000000000000E-01  1.4791732924495E+00 -1.7471234529559E-01
24  2.3000000000000E-01  1.5196865811004E+00 -1.7144169311763E-01
25  2.4000000000000E-01  1.5563855227069E+00 -1.6546018257201E-01
26  2.5000000000000E-01  1.5891137761488E+00 -1.5654954573683E-01
27  2.6000000000000E-01  1.6177301794308E+00 -1.4451445999679E-01
28  2.7000000000000E-01  1.6421106857244E+00 -1.2918688688829E-01
29  2.8000000000000E-01  1.6621501279269E+00 -1.1042999131291E-01
30  2.9000000000000E-01  1.6777637764452E+00 -8.8141554487760E-02
31  3.0000000000000E-01  1.6888886588397E+00 -6.2256804367675E-02
32  3.1000000000000E-01  1.6954846145771E+00 -3.2750599360251E-02
33  3.2000000000000E-01  1.6975350633347E+00  3.6108529133984E-04
34  3.3000000000000E-01  1.6950474709681E+00  3.7020404352549E-02
35  3.4000000000000E-01  1.6880535032748E+00  7.7127642970814E-02
36  3.5000000000000E-01  1.6766088639330E+00  1.2054197476373E-01
37  3.6000000000000E-01  1.6607928193310E+00  1.6708296551677E-01
38  3.7000000000000E-01  1.6407074192876E+00  2.1653279427931E-01
39  3.8000000000000E-01  1.6164764287708E+00  2.6863914807969E-01
40  3.9000000000000E-01  1.5882439915028E+00  3.2311873179925E-01
41  4.0000000000000E-01  1.5561730516828E+00  3.7966132128031E-01
42  4.1000000000000E-01  1.5204435648305E+00  4.3793427579946E-01
43  4.2000000000000E-01  1.4812505328588E+00  4.9758741589181E-01
44  4.3000000000000E-01  1.4388019018239E+00  5.5825816439954E-01
45  4.4000000000000E-01  1.3933163632997E+00  6.1957684273593E-01
46  4.5000000000000E-01  1.3450211019258E+00  6.8117201084972E-01
47  4.6000000000000E-01  1.2941495323363E+00  7.4267573834169E-01
48  4.7000000000000E-01  1.2409390683880E+00  8.0372869566658E-01
49  4.8000000000000E-01  1.1856289663510E+00  8.6398495833719E-01
50  4.9000000000000E-01  1.1284582815505E+00  9.2311642346368E-01
51  5.0000000000000E-01  1.0696639748796E+00  9.8081674668741E-01
52  5.1000000000000E-01  1.0094792017159E+00  1.0368047184282E+00
53  5.2000000000000E-01  9.4813181115225E-01  1.0908270111311E+00
54  5.3000000000000E-01  8.8584307818770E-01  1.1426602436056E+00
55  5.4000000000000E-01  8.2282668574315E-01  1.1921123242797E+00
56  5.5000000000000E-01  7.5928796719302E-01  1.2390230519155E+00
57  5.6000000000000E-01  6.9542341367523E-01  1.2832639696592E+00
58  5.7000000000000E-01  6.3142044390879E-01  1.3247374858680E+00
59  5.8000000000000E-01  5.6745742775562E-01  1.3633752925482E+00
60  5.9000000000000E-01  5.0370394846562E-01  1.3991361290689E+00
61  6.0000000000000E-01  4.4032128258620E-01  1.4320029546930E+00
62  6.1000000000000E-01  3.7746307104244E-01  1.4619796080099E+00
63  6.2000000000000E-01  3.1527615003377E-01  1.4890870442262E+00
64  6.3000000000000E-01  2.5390150626754E-01  1.5133592521488E+00
65  6.4000000000000E-01  1.9347531776280E-01  1.5348389613041E+00
66  6.5000000000000E-01  1.3413003909692E-01  1.5535732557554E+00
67  6.6000000000000E-01  7.5995488599051E-02  1.5696092146334E+00
68  6.7000000000000E-01  1.9199894663312E-02  1.5829897000577E+00
69  6.8000000000000E-01 -3.6129140917169E-02  1.5937494109555E+00
70  6.9000000000000E-01 -8.9863802909377E-02  1.6019113162810E+00
71  7.0000000000000E-01 -1.4187538339043E-01  1.6074835733717E+00
72  7.1000000000000E-01 -1.9203379699004E-01  1.6104570267903E+00
73  7.2000000000000E-01 -2.4020731962309E-01  1.6108033701847E+00
74  7.3000000000000E-01 -2.8626257419477E-01  1.6084740387040E+00
75  7.4000000000000E-01 -3.3006478054920E-01  1.6033998826506E+00
76  7.5000000000000E-01 -3.7147828015718E-01  1.5954916546764E+00
77  7.6000000000000E-01 -4.1036733884880E-01  1.5846413233343E+00
78  7.7000000000000E-01 -4.4659722345233E-01  1.5707242056127E+00
79  7.8000000000000E-01 -4.8003554066932E-01  1.5536018906408E+00
80  7.9000000000000E-01 -5.1055381907272E-01  1.5331259065323E+00
81  8.0000000000000E-01 -5.3802930793336E-01  1.5091420627899E+00
82  8.1000000000000E-01 -5.6234695983296E-01  1.4814953822795E+00
83  8.2000000000000E-01 -5.8340155787308E-01  1.4500355199430E+00
84  8.3000000000000E-01 -6.0109994289500E-01  1.4146225505588E+00
85  8.4000000000000E-01 -6.1536329162444E-01  1.3751329953577E+00
86  8.5000000000000E-01 -6.2612939317084E-01  1.3314659474821E+00
87  8.6000000000000E-01 -6.3335486894597E-01  1.2835491494130E+00
88  8.7000000000000E-01 -6.3701727989941E-01  1.2313448717968E+00
89  8.8000000000000E-01 -6.3711706505316E-01  1.1748554427254E+00
90  8.9000000000000E-01 -6.3367925668067E-01  1.1141282795323E+00
91  9.0000000000000E-01 -6.2675492011608E-01  1.0492602815712E+00
92  9.1000000000000E-01 -6.1642227006700E-01  9.8040145215760E-01
93  9.2000000000000E-01 -6.0278742038210E-01  9.0775763074455E-01
94  9.3000000000000E-01 -5.8598473040599E-01  8.3159223223348E-01
95  9.4000000000000E-01 -5.6617671822876E-01  7.5222690881582E-01
96  9.5000000000000E-01 -5.4355351916975E-01  6.7004107053838E-01
97  9.6000000000000E-01 -5.1833187656867E-01  5.8547022348259E-01
98  9.7000000000000E-01 -4.9075366121517E-01  4.9900310857977E-01
99  9.8000000000000E-01 -4.6108392534591E-01  4.1117764916946E-01
100  9.9000000000000E-01 -4.2960850686888E-01  3.2257574090295E-01
101  1.0000000000000E+00 -3.9663120913731E-01  2.3381694297099E-01
102  1.0100000000000E+00 -3.6247059097458E-01  1.4555115433092E-01
103  1.0200000000000E+00 -3.2745641055164E-01  5.8450382105153E-02
104  1.0300000000000E+00 -2.9192577492523E-01 -2.6800268938027E-02
105  1.0400000000000E+00 -2.5621905437897E-01 -1.0951223740720E-01
106  1.0500000000000E+00 -2.2067562700405E-01 -1.8900361156861E-01
107  1.0600000000000E+00 -1.8562952403921E-01 -2.6460952193646E-01
108  1.0700000000000E+00 -1.5140505025328E-01 -3.3569263093682E-01
109  1.0800000000000E+00 -1.1831245597852E-01 -4.0165352385173E-01
110  1.0900000000000E+00 -8.6643738223396E-02 -4.6194080260432E-01
111  1.1000000000000E+00 -5.6668647559692E-02 -5.1606068534176E-01
112  1.1100000000000E+00 -2.8630975187343E-02 -5.6358592023085E-01
113  1.1200000000000E+00 -2.7451907416426E-03 -6.0416383137366E-01
114  1.1300000000000E+00  2.0806503911613E-02 -6.3752332811353E-01
115  1.1400000000000E+00  4.1876646372098E-02 -6.6348072604008E-01
116  1.1500000000000E+00  6.0354460374719E-02 -6.8194424839382E-01
117  1.1600000000000E+00  7.6167236063743E-02 -6.9291709996618E-01
118  1.1700000000000E+00  8.9281112602861E-02 -6.9649903149640E-01
119  1.1800000000000E+00  9.9701242757277E-02 -6.9288634059429E-01
120  1.1900000000000E+00  1.0747133049609E-01 -6.8237028459992E-01
121  1.2000000000000E+00  1.1267254449723E-01 -6.6533391130385E-01
122  1.2100000000000E+00  1.1542182226001E-01 -6.4224734397038E-01
123  1.2200000000000E+00  1.1586959133745E-01 -6.1366158761731E-01
124  1.2300000000000E+00  1.1419694553085E-01 -5.8020095280971E-01
125  1.2400000000000E+00  1.1061232465765E-01 -5.4255422110048E-01
126  1.2500000000000E+00  1.0534775645296E-01 -5.0146470202477E-01
127  1.2600000000000E+00  9.8654728017382E-02 -4.5771935450339E-01
128  1.2700000000000E+00  9.0799761914548E-02 -4.1213716546624E-01
129  1.2800000000000E+00  8.2059778282123E-02 -3.6555699476286E-01
130  1.2900000000000E+00  7.2717329195606E-02 -3.1882510815182E-01
131  1.3000000000000E+00  6.3055790116353E-02 -2.7278261501751E-01
132  1.3100000000000E+00  5.3354637698352E-02 -2.2825315389437E-01
133  1.3200000000000E+00  4.3883634668062E-02 -1.8602738243160E-01
134  1.3300000000000E+00  3.4894002307453E-02 -1.4683858007310E-01
135  1.3400000000000E+00  2.6604568153031E-02 -1.1132682644335E-01
136  1.3500000000000E+00  1.9193817291394E-02 -8.0018163105967E-02
137  1.3600000000000E+00  1.2837614596887E-02 -5.3419418345453E-02
138  1.3700000000000E+00  7.6743673803354E-03 -3.1932393778986E-02
139  1.3800000000000E+00  3.8014827426700E-03 -1.5845305316847E-02
140  1.3900000000000E+00  1.2666899720058E-03 -5.2985188121537E-03
141  1.4000000000000E+00  1.1862855175793E-04 -4.9904053901808E-04
142  1.4100000000000E+00 -1.2870161929763E-05  5.4322025797164E-05
143  1.4200000000000E+00  1.6130320115239E-06 -6.7878565953737E-06
144  1.43 -0.  0.
145  1.44  0.  0.
146  1.45  0.  0.
147  1.46  0.  0.
148  1.47  0.  0.
149  1.48  0.  0.
150  1.49  0.  0.
151  1.50  0.  0.
152  1.51  0.  0.
153  1.52  0.  0.
154  1.53  0.  0.
155  1.54  0.  0.
156  1.55  0.  0.
157  1.56  0.  0.
158  1.57  0.  0.
159  1.58  0.  0.
160  1.59  0.  0.
161  1.60  0.  0.
162  1.61  0.  0.
163  1.62  0.  0.
164  1.63  0.  0.
165  1.64  0.  0.
166  1.65  0.  0.
167  1.66  0.  0.
168  1.67  0.  0.
169  1.68  0.  0.
170  1.69  0.  0.
171  1.70  0.  0.
172  1.71  0.  0.
173  1.72  0.  0.
174  1.73  0.  0.
175  1.74  0.  0.
176  1.75  0.  0.
177  1.76  0.  0.
178  1.77  0.  0.
179  1.78  0.  0.
180  1.79  0.  0.
181  1.80  0.  0.
182  1.81  0.  0.
183  1.82  0.  0.
184  1.83  0.  0.
185  1.84  0.  0.
186  1.85  0.  0.
187  1.86  0.  0.
188  1.87  0.  0.
189  1.88  0.  0.
190  1.89  0.  0.
191  1.90  0.  0.
192  1.91  0.  0.
193  1.92  0.  0.
194  1.93  0.  0.
195  1.94  0.  0.
196  1.95  0.  0.
197  1.96  0.  0.
198  1.97  0.  0.
199  1.98  0.  0.
200  1.99  0.  0.
201  2.00  0.  0.
202  2.01  0.  0.
203  2.02  0.  0.
204  2.03  0.  0.
205  2.04  0.  0.
206  2.05  0.  0.
207  2.06  0.  0.
208  2.07  0.  0.
209  2.08  0.  0.
210  2.09  0.  0.
211  2.10  0.  0.
212  2.11  0.  0.
213  2.12  0.  0.
214  2.13  0.  0.
215  2.14  0.  0.
216  2.15  0.  0.
217  2.16  0.  0.
218  2.17  0.  0.
219  2.18  0.  0.
220  2.19  0.  0.
221  2.20  0.  0.
222  2.21  0.  0.
223  2.22  0.  0.
224  2.23  0.  0.
225  2.24  0.  0.
226  2.25  0.  0.
227  2.26  0.  0.
228  2.27  0.  0.
229  2.28  0.  0.
230  2.29  0.  0.
231  2.30  0.  0.
232  2.31  0.  0.
233  2.32  0.  0.
234  2.33  0.  0.
235  2.34  0.  0.
236  2.35  0.  0.
237  2.36  0.  0.
238  2.37  0.  0.
239  2.38  0.  0.
240  2.39  0.  0.
241  2.40  0.  0.
242  2.41  0.  0.
243  2.42  0.  0.
244  2.43  0.  0.
245  2.44  0.  0.
246  2.45  0.  0.
247  2.46  0.  0.
248  2.47  0.  0.
249  2.48  0.  0.
250  2.49  0.  0.
251  2.50  0.  0.
252  2.51  0.  0.
253  2.52  0.  0.
254  2.53  0.  0.
255  2.54  0.  0.
256  2.55  0.  0.
257  2.56  0.  0.
258  2.57  0.  0.
259  2.58  0.  0.
260  2.59  0.  0.
261  2.60  0.  0.
262  2.61  0.  0.
263  2.62  0.  0.
264  2.63  0.  0.
265  2.64  0.  0.
266  2.65  0.  0.
267  2.66  0.  0.
268  2.67  0.  0.
269  2.68  0.  0.
270  2.69  0.  0.
271  2.70  0.  0.
272  2.71  0.  0.
273  2.72  0.  0.
274  2.73  0.  0.
275  2.74  0.  0.
276  2.75  0.  0.
277  2.76  0.  0.
278  2.77  0.  0.
279  2.78  0.  0.
280  2.79  0.  0.
281  2.80  0.  0.
282  2.81  0.  0.
283  2.82  0.  0.
284  2.83  0.  0.
285  2.84  0.  0.
286  2.85  0.  0.
287  2.86  0.  0.
288  2.87  0.  0.
289  2.88  0.  0.
290  2.89  0.  0.
291  2.90  0.  0.
292  2.91  0.  0.
293  2.92  0.  0.
294  2.93  0.  0.
295  2.94  0.  0.
296  2.95  0.  0.
297  2.96  0.  0.
298  2.97  0.  0.
299  2.98  0.  0.
300  2.99  0.  0.
301  3.00  0.  0.
302  3.01  0.  0.
303  3.02  0.  0.
304  3.03  0.  0.
305  3.04  0.  0.
306  3.05  0.  0.
307  3.06  0.  0.
308  3.07  0.  0.
309  3.08  0.  0.
310  3.09  0.  0.
311  3.10  0.  0.
312  3.11  0.  0.
313  3.12  0.  0.
314  3.13  0.  0.
315  3.14  0.  0.
316  3.15  0.  0.
317  3.16  0.  0.
318  3.17  0.  0.
319  3.18  0.  0.
320  3.19  0.  0.
321  3.20  0.  0.
322  3.21  0.  0.
323  3.22  0.  0.
324  3.23  0.  0.
325  3.24  0.  0.
326  3.25  0.  0.
327  3.26  0.  0.
328  3.27  0.  0.
329  3.28  0.  0.
330  3.29  0.  0.
331  3.30  0.  0.
332  3.31  0.  0.
333  3.32  0.  0.
334  3.33  0.  0.
335  3.34  0.  0.
336  3.35  0.  0.
337  3.36  0.  0.
338  3.37  0.  0.
339  3.38  0.  0.
340  3.39  0.  0.
341  3.40  0.  0.
342  3.41  0.  0.
343  3.42  0.  0.
344  3.43  0.  0.
345  3.44  0.  0.
346  3.45  0.  0.
347  3.46  0.  0.
348  3.47  0.  0.
349  3.48  0.  0.
350  3.49  0.  0.
351  3.50  0.  0.
352  3.51  0.  0.
353  3.52  0.  0.
354  3.53  0.  0.
355  3.54  0.  0.
356  3.55  0.  0.
357  3.56  0.  0.
358  3.57  0.  0.
359  3.58  0.  0.
360  3.59  0.  0.
361  3.60  0.  0.
362  3.61  0.  0.
363  3.62  0.  0.
364  3.63  0.  0.
365  3.64  0.  0.
366  3.65  0.  0.
367  3.66  0.  0.
368  3.67  0.  0.
369  3.68  0.  0.
370  3.69  0.  0.
371  3.70  0.  0.
372  3.71  0.  0.
373  3.72  0.  0.
374  3.73  0.  0.
375  3.74  0.  0.
376  3.75  0.  0.
377  3.76  0.  0.
378  3.77  0.  0.
379  3.78  0.  0.
380  3.79  0.  0.
381  3.80  0.  0.
382  3.81  0.  0.
383  3.82  0.  0.
384  3.83  0.  0.
385  3.84  0.  0.
386  3.85  0.  0.
387  3.86  0.  0.
388  3.87  0.  0.
389  3.88  0.  0.
390  3.89  0.  0.
391  3.90  0.  0.
392  3.91  0.  0.
393  3.92  0.  0.
394  3.93  0.  0.
395  3.94  0.  0.
396  3.95  0.  0.
397  3.96  0.  0.
398  3.97  0.  0.
399  3.98  0.  0.
400  3.99  0.  0.
401  4.00  0.  0.
402  4.01  0.  0.
403  4.02  0.  0.
404  4.03  0.  0.
405  4.04  0.  0.
406  4.05  0.  0.
407  4.06  0.  0.
408  4.07  0.  0.
409  4.08  0.  0.
410  4.09  0.  0.
411  4.10  0.  0.
412  4.11  0.  0.
413  4.12  0.  0.
414  4.13  0.  0.
415  4.14  0.  0.
416  4.15  0.  0.
417  4.16  0.  0.
418  4.17  0.  0.
419  4.18  0.  0.
420  4.19  0.  0.
421  4.20  0.  0.
422  4.21  0.  0.
423  4.22  0.  0.
424  4.23  0.  0.
425  4.24  0.  0.
426  4.25  0.  0.
427  4.26  0.  0.
428  4.27  0.  0.
429  4.28  0.  0.
430  4.29  0.  0.
431  4.30  0.  0.
432  4.31  0.  0.
433  4.32  0.  0.
434  4.33  0.  0.
435  4.34  0.  0.
436  4.35  0.  0.
437  4.36  0.  0.
438  4.37  0.  0.
439  4.38  0.  0.
440  4.39  0.  0.
441  4.40  0.  0.
442  4.41  0.  0.
443  4.42  0.  0.
444  4.43  0.  0.
445  4.44  0.  0.
446  4.45  0.  0.
447  4.46  0.  0.
448  4.47  0.  0.
449  4.48  0.  0.
450  4.49  0.  0.
451  4.50  0.  0.
452  4.51  0.  0.
453  4.52  0.  0.
454  4.53  0.  0.
455  4.54  0.  0.
456  4.55  0.  0.
457  4.56  0.  0.
458  4.57  0.  0.
459  4.58  0.  0.
460  4.59  0.  0.
461  4.60  0.  0.
462  4.61  0.  0.
463  4.62  0.  0.
464  4.63  0.  0.
465  4.64  0.  0.
466  4.65  0.  0.
467  4.66  0.  0.
468  4.67  0.  0.
469  4.68  0.  0.
470  4.69  0.  0.
471  4.70  0.  0.
472  4.71  0.  0.
473  4.72  0.  0.
474  4.73  0.  0.
475  4.74  0.  0.
476  4.75  0.  0.
477  4.76  0.  0.
478  4.77  0.  0.
479  4.78  0.  0.
480  4.79  0.  0.
481  4.80  0.  0.
482  4.81  0.  0.
483  4.82  0.  0.
484  4.83  0.  0.
485  4.84  0.  0.
486  4.85  0.  0.
487  4.86  0.  0.
488  4.87  0.  0.
489  4.88  0.  0.
490  4.89  0.  0.
491  4.90  0.  0.
492  4.91  0.  0.
493  4.92  0.  0.
494  4.93  0.  0.
495  4.94  0.  0.
496  4.95  0.  0.
497  4.96  0.  0.
498  4.97  0.  0.
499  4.98  0.  0.
500  4.99  0.  0.
501  5.00  0.  0.
502  5.01  0.  0.
503  5.02  0.  0.
504  5.03  0.  0.
505  5.04  0.  0.
506  5.05  0.  0.
507  5.06  0.  0.
508  5.07  0.  0.
509  5.08  0.  0.
510  5.09  0.  0.
511  5.10  0.  0.
512  5.11  0.  0.
513  5.12  0.  0.
514  5.13  0.  0.
515  5.14  0.  0.
516  5.15  0.  0.
517  5.16  0.  0.
518  5.17  0.  0.
519  5.18  0.  0.
520  5.19  0.  0.
521  5.20  0.  0.
522  5.21  0.  0.
523  5.22  0.  0.
524  5.23  0.  0.
525  5.24  0.  0.
526  5.25  0.  0.
527  5.26  0.  0.
528  5.27  0.  0.
529  5.28  0.  0.
530  5.29  0.  0.
531  5.30  0.  0.
532  5.31  0.  0.
533  5.32  0.  0.
534  5.33  0.  0.
535  5.34  0.  0.
536  5.35  0.  0.
537  5.36  0.  0.
538  5.37  0.  0.
539  5.38  0.  0.
540  5.39  0.  0.
541  5.40  0.  0.
542  5.41  0.  0.
543  5.42  0.  0.
544  5.43  0.  0.
545  5.44  0.  0.
546  5.45  0.  0.
547  5.46  0.  0.
548  5.47  0.  0.
549  5.48  0.  0.
550  5.49  0.  0.
551  5.50  0.  0.
552  5.51  0.  0.
553  5.52  0.  0.
554  5.53  0.  0.
555  5.54  0.  0.
556  5.55  0.  0.
557  5.56  0.  0.
558  5.57  0.  0.
559  5.58  0.  0.
560  5.59  0.  0.
561  5.60  0.  0.
562  5.61  0.  0.
563  5.62  0.  0.
564  5.63  0.  0.
565  5.64  0.  0.
566  5.65  0.  0.
567  5.66  0.  0.
568  5.67  0.  0.
569  5.68  0.  0.
570  5.69  0.  0.
571  5.70  0.  0.
572  5.71  0.  0.
573  5.72  0.  0.
574  5.73  0.  0.
575  5.74  0.  0.
576  5.75  0.  0.
577  5.76  0.  0.
578  5.77  0.  0.
579  5.78  0.  0.
580  5.79  0.  0.
581  5.80  0.  0.
582  5.81  0.  0.
583  5.82  0.  0.
584  5.83  0.  0.
585  5.84  0.  0.
586  5.85  0.  0.
587  5.86  0.  0.
588  5.87  0.  0.
589  5.88  0.  0.
590  5.89  0.  0.
591  5.90  0.  0.
592  5.91  0.  0.
593  5.92  0.  0.
594  5.93  0.  0.
595  5.94  0.  0.
596  5.95  0.  0.
597  5.96  0.  0.
598  5.97  0.  0.
599  5.98  0.  0.
600  5.99  0.  0.
1                         6.8916069531829E+00  1.1012032394630E+00
1  0.0000000000000E+00 -5.9957307591008E-09  1.4608528912594E-08
2  1.0000000000000E-02  1.6052939150784E-03  1.2424074939340E-04
3  2.0000000000000E-02  6.4196703071422E-03  4.8548265695081E-04
4  3.0000000000000E-02  1.4438484257994E-02  1.0496471493644E-03
5  4.0000000000000E-02  2.5653568361431E-02  1.7611358996017E-03
6  5.0000000000000E-02  4.0052606610988E-02  2.5445989367040E-03
7  6.0000000000000E-02  5.7618282944676E-02  3.3073490520775E-03
8  7.0000000000000E-02  7.8327228852694E-02  3.9423632142926E-03
9  8.0000000000000E-02  1.0214880044985E-01  4.3317970958775E-03
10  9.0000000000000E-02  1.2904372070650E-01  4.3509258848134E-03
11  1.0000000000000E-01  1.5896262699555E-01  3.8724135979782E-03
12  1.1000000000000E-01  1.9184456764204E-01  2.7708043872575E-03
13  1.2000000000000E-01  2.2761549366932E-01  9.2712303770985E-04
14  1.3000000000000E-01  2.6618679335879E-01 -1.7665318478333E-03
15  1.4000000000000E-01  3.0745391753755E-01 -5.4025195054353E-03
16  1.5000000000000E-01  3.5129514266573E-01 -1.0053429339507E-02
17  1.6000000000000E-01  3.9757051682145E-01 -1.5768205364079E-02
18  1.7000000000000E-01  4.4612103061246E-01 -2.2568727191373E-02
19  1.8000000000000E-01  4.9676805093768E-01 -3.0446942528196E-02
20  1.9000000000000E-01  5.4931305046303E-01 -3.9362634392839E-02
21  2.0000000000000E-01  6.0353765976744E-01 -4.9241892492061E-02
22  2.1000000000000E-01  6.5920406248141E-01 -5.9976342695181E-02
23  2.2000000000000E-01  7.1605574652267E-01 -7.1423171644549E-02
24  2.3000000000000E-01  7.7381861688616E-01 -8.3405965618694E-02
25  2.4000000000000E-01  8.3220246753474E-01 -9.5716364208685E-02
26  2.5000000000000E-01  8.9090280193611E-01 -1.0811651059231E-01
27  2.6000000000000E-01  9.4960298387585E-01 -1.2034226161286E-01
28  2.7000000000000E-01  1.0079766925248E+00 -1.3210710290863E-01
29  2.8000000000000E-01  1.0656906485213E+00 -1.4310669740447E-01
30  2.9000000000000E-01  1.1224075712121E+00 -1.5302397995682E-01
31  3.0000000000000E-01  1.1777893213308E+00 -1.6153469720162E-01
32  3.1000000000000E-01  1.2315001784207E+00 -1.6831328001541E-01
33  3.2000000000000E-01  1.2832101983464E+00 -1.7303892674771E-01
34  3.3000000000000E-01  1.3325985933910E+00 -1.7540176875015E-01
35  3.4000000000000E-01  1.3793570757705E+00 -1.7510898589204E-01
36  3.5000000000000E-01  1.4231931049766E+00 -1.7189073883144E-01
37  3.6000000000000E-01  1.4638329801962E+00 -1.6550578685958E-01
38  3.7000000000000E-01  1.5010247211617E+00 -1.5574666514366E-01
39  3.8000000000000E-01  1.5345406841139E+00 -1.4244430308375E-01
40  3.9000000000000E-01  1.5641798640705E+00 -1.2547197613155E-01
41  4.0000000000000E-01  1.5897698401891E+00 -1.0474849659029E-01
42  4.1000000000000E-01  1.6111683275914E+00 -8.0240564363769E-02
43  4.2000000000000E-01  1.6282643064518E+00 -5.1964216034167E-02
44  4.3000000000000E-01  1.6409787072806E+00 -1.9985329658132E-02
45  4.4000000000000E-01  1.6492646400000E+00  1.5580837120339E-02
46  4.5000000000000E-01  1.6531071634256E+00  5.4571077071110E-02
47  4.6000000000000E-01  1.6525226009415E+00  9.6776611646461E-02
48  4.7000000000000E-01  1.6475574172953E+00  1.4194637655566E-01
49  4.8000000000000E-01  1.6382866803377E+00  1.8979115320487E-01
50  4.9000000000000E-01  1.6248121400032E+00  2.3998846518195E-01
51  5.0000000000000E-01  1.6072599646721E+00  2.9218814113165E-01
52  5.1000000000000E-01  1.5857781821024E+00  3.4601842949686E-01
53  5.2000000000000E-01  1.5605338782072E+00  4.0109253707651E-01
54  5.3000000000000E-01  1.5317102119319E+00  4.5701545250421E-01
55  5.4000000000000E-01  1.4995033082439E+00  5.1339090786279E-01
56  5.5000000000000E-01  1.4641190936797E+00  5.6982832693759E-01
57  5.6000000000000E-01  1.4257701399415E+00  6.2594960722343E-01
58  5.7000000000000E-01  1.3846725806546E+00  6.8139558481918E-01
59  5.8000000000000E-01  1.3410431645845E+00  7.3583203677038E-01
60  5.9000000000000E-01  1.2950965053864E+00  7.8895508418612E-01
61  6.0000000000000E-01  1.2470425833901E+00  8.4049587141388E-01
62  6.1000000000000E-01  1.1970845490754E+00  8.9022441148564E-01
63  6.2000000000000E-01  1.1454168709044E+00  9.3795250566282E-01
64  6.3000000000000E-01  1.0922238621742E+00  9.8353566485180E-01
65  6.4000000000000E-01  1.0376786127117E+00  1.0268739825286E+00
66  6.5000000000000E-01  9.8194234173415E-01  1.0679119321392E+00
67  6.6000000000000E-01  9.2516417825483E-01  1.1066370862339E+00
68  6.7000000000000E-01  8.6748136523329E-01  1.1430777793229E+00
69  6.8000000000000E-01  8.0901987348566E-01  1.1772997610557E+00
70  6.9000000000000E-01  7.4989540140757E-01  1.2094019102857E+00
71  7.0000000000000E-01  6.9021472704815E-01  1.2395111033261E+00
72  7.1000000000000E-01  6.3007737022913E-01  1.2677763507129E+00
73  7.2000000000000E-01  5.6957751443573E-01  1.2943623355682E+00
74  7.3000000000000E-01  5.0880613130820E-01  1.3194425027402E+00
75  7.4000000000000E-01  4.4785324490526E-01  1.3431918608793E+00
76  7.5000000000000E-01  3.8681026863829E-01  1.3657796691649E+00
77  7.6000000000000E-01  3.2577234500626E-01  1.3873621862291E+00
78  7.7000000000000E-01  2.6484061707921E-01  1.4080756607583E+00
79  7.8000000000000E-01  2.0412436113603E-01  1.4280297411718E+00
80  7.9000000000000E-01  1.4374291197320E-01  1.4473014756502E+00
81  8.0000000000000E-01  8.3827316145861E-02  1.4659300636918E+00
82  8.1000000000000E-01  2.4521653721767E-02  1.4839125064541E+00
83  8.2000000000000E-01 -3.4016024071170E-02  1.5012002856396E+00
84  8.3000000000000E-01 -9.1613185770179E-02  1.5176971799320E+00
85  8.4000000000000E-01 -1.4808277429713E-01  1.5332583043765E+00
86  8.5000000000000E-01 -2.0322365004599E-01  1.5476904321075E+00
87  8.6000000000000E-01 -2.5682153607614E-01  1.5607536299784E+00
88  8.7000000000000E-01 -3.0865046736153E-01  1.5721642105301E+00
89  8.8000000000000E-01 -3.5847473405642E-01  1.5815989729599E+00
90  8.9000000000000E-01 -4.0605129671087E-01  1.5887006759694E+00
91  9.0000000000000E-01 -4.5113263957066E-01  1.5930846562232E+00
92  9.1000000000000E-01 -4.9347001679192E-01  1.5943464783018E+00
93  9.2000000000000E-01 -5.3281703585234E-01  1.5920704761007E+00
94  9.3000000000000E-01 -5.6893351289406E-01  1.5858390222275E+00
95  9.4000000000000E-01 -6.0158952641803E-01  1.5752423416222E+00
96  9.5000000000000E-01 -6.3056958887120E-01  1.5598886688814E+00
97  9.6000000000000E-01 -6.5567685040430E-01  1.5394145360213E+00
98  9.7000000000000E-01 -6.7673724557264E-01  1.5134949690170E+00
99  9.8000000000000E-01 -6.9360349211497E-01  1.4818533676697E+00
100  9.9000000000000E-01 -7.0615885124520E-01  1.4442708443285E+00
101  1.0000000000000E+00 -7.1432056115655E-01  1.4005948027984E+00
102  1.0100000000000E+00 -7.1804285965041E-01  1.3507465493541E+00
103  1.0200000000000E+00 -7.1731951791322E-01  1.2947277430013E+00
104  1.0300000000000E+00 -7.1218581536841E-01  1.2326255117454E+00
105  1.0400000000000E+00 -7.0271989508125E-01  1.1646160852519E+00
106  1.0500000000000E+00 -6.8904345024174E-01  1.0909668215549E+00
107  1.0600000000000E+00 -6.7132170454398E-01  1.0120365357682E+00
108  1.0700000000000E+00 -6.4976266260394E-01  9.2827407153441E-01
109  1.0800000000000E+00 -6.2461562065557E-01  8.4021509060328E-01
110  1.0900000000000E+00 -5.9616894228731E-01  7.4847709157389E-01
111  1.1000000000000E+00 -5.6474711873254E-01  6.5375270501315E-01
112  1.1100000000000E+00 -5.3070714777195E-01  5.5680134778896E-01
113  1.1200000000000E+00 -4.9443427945371E-01  4.5843935407667E-01
114  1.1300000000000E+00 -4.5633719018955E-01  3.5952873313217E-01
115  1.1400000000000E+00 -4.1684265911469E-01  2.6096473402336E-01
116  1.1500000000000E+00 -3.7638983159261E-01  1.6366242430589E-01
117  1.1600000000000E+00 -3.3542416418209E-01  6.8542512587011E-02
118  1.1700000000000E+00 -2.9439115302160E-01 -2.3483336549382E-02
119  1.1800000000000E+00 -2.5372995327056E-01 -1.1152743305090E-01
120  1.1900000000000E+00 -2.1386700080685E-01 -1.9474096661645E-01
121  1.2000000000000E+00 -1.7520974873824E-01 -2.7232861278478E-01
122  1.2100000000000E+00 -1.3814063038916E-01 -3.4356256845105E-01
123  1.2200000000000E+00 -1.0301135723771E-01 -4.0779575337429E-01
124  1.2300000000000E+00 -7.0137654890901E-02 -4.6447392762254E-01
125  1.2400000000000E+00 -3.9794532659452E-02 -5.1314649350901E-01
126  1.2500000000000E+00 -1.2212172726400E-02 -5.5347577415832E-01
127  1.2600000000000E+00  1.2427486403636E-02 -5.8524458866451E-01
128  1.2700000000000E+00  3.3993410486182E-02 -6.0836197573996E-01
129  1.2800000000000E+00  5.2407326780144E-02 -6.2286695289549E-01
130  1.2900000000000E+00  6.7644746052165E-02 -6.2893023622297E-01
131  1.3000000000000E+00  7.9735129003082E-02 -6.2685387072555E-01
132  1.3100000000000E+00  8.8761228978367E-02 -6.1706887575808E-01
133  1.3200000000000E+00  9.4856408837459E-02 -6.0012707925694E-01
134  1.3300000000000E+00  9.8197420294358E-02 -5.7667945142889E-01
135  1.3400000000000E+00  9.8998288166325E-02 -5.4745914490464E-01
136  1.3500000000000E+00  9.7505800383083E-02 -5.1327032903425E-01
137  1.3600000000000E+00  9.3994396477745E-02 -4.7497554918009E-01
138  1.3700000000000E+00  8.8760574150382E-02 -4.3348192844992E-01
139  1.3800000000000E+00  8.2116896713194E-02 -3.8972640006642E-01
140  1.3900000000000E+00  7.4385712138457E-02 -3.4466024298794E-01
141  1.4000000000000E+00  6.5892699381046E-02 -2.9923320443351E-01
142  1.4100000000000E+00  5.6960368387644E-02 -2.5437751583319E-01
143  1.4200000000000E+00  4.7901577553391E-02 -2.1099198840213E-01
144  1.4300000000000E+00  3.9013432473800E-02 -1.6992695610634E-01
145  1.4400000000000E+00  3.0563940896904E-02 -1.3195529731741E-01
146  1.4500000000000E+00  2.2786597174979E-02 -9.7758406937116E-02
147  1.4600000000000E+00  1.5907462227966E-02 -6.7976763045094E-02
148  1.4700000000000E+00  1.0114333759999E-02 -4.3148874692327E-02
149  1.4800000000000E+00  5.5526002763312E-03 -2.3701099723534E-02
150  1.4900000000000E+00  2.3225264757721E-03 -9.9412189392596E-03
151  1.5000000000000E+00  4.8041472793225E-04 -2.0667495748520E-03
152  1.5100000000000E+00 -2.0753200902371E-05  8.9719895277464E-05
153  1.5200000000000E+00  7.2093563262039E-06 -3.1100495800060E-05
154  1.53 -0.  0.
155  1.54 -0. -0.
156  1.55  0.  0.
157  1.56  0.  0.
158  1.57  0.  0.
159  1.58  0.  0.
160  1.59  0.  0.
161  1.60  0.  0.
162  1.61  0.  0.
163  1.62  0.  0.
164  1.63  0.  0.
165  1.64  0.  0.
166  1.65  0.  0.
167  1.66  0.  0.
168  1.67  0.  0.
169  1.68  0.  0.
170  1.69  0.  0.
171  1.70  0.  0.
172  1.71  0.  0.
173  1.72  0.  0.
174  1.73  0.  0.
175  1.74  0.  0.
176  1.75  0.  0.
177  1.76  0.  0.
178  1.77  0.  0.
179  1.78  0.  0.
180  1.79  0.  0.
181  1.80  0.  0.
182  1.81  0.  0.
183  1.82  0.  0.
184  1.83  0.  0.
185  1.84  0.  0.
186  1.85  0.  0.
187  1.86  0.  0.
188  1.87  0.  0.
189  1.88  0.  0.
190  1.89  0.  0.
191  1.90  0.  0.
192  1.91  0.  0.
193  1.92  0.  0.
194  1.93  0.  0.
195  1.94  0.  0.
196  1.95  0.  0.
197  1.96  0.  0.
198  1.97  0.  0.
199  1.98  0.  0.
200  1.99  0.  0.
201  2.00  0.  0.
202  2.01  0.  0.
203  2.02  0.  0.
204  2.03  0.  0.
205  2.04  0.  0.
206  2.05  0.  0.
207  2.06  0.  0.
208  2.07  0.  0.
209  2.08  0.  0.
210  2.09  0.  0.
211  2.10  0.  0.
212  2.11  0.  0.
213  2.12  0.  0.
214  2.13  0.  0.
215  2.14  0.  0.
216  2.15  0.  0.
217  2.16  0.  0.
218  2.17  0.  0.
219  2.18  0.  0.
220  2.19  0.  0.
221  2.20  0.  0.
222  2.21  0.  0.
223  2.22  0.  0.
224  2.23  0.  0.
225  2.24  0.  0.
226  2.25  0.  0.
227  2.26  0.  0.
228  2.27  0.  0.
229  2.28  0.  0.
230  2.29  0.  0.
231  2.30  0.  0.
232  2.31  0.  0.
233  2.32  0.  0.
234  2.33  0.  0.
235  2.34  0.  0.
236  2.35  0.  0.
237  2.36  0.  0.
238  2.37  0.  0.
239  2.38  0.  0.
240  2.39  0.  0.
241  2.40  0.  0.
242  2.41  0.  0.
243  2.42  0.  0.
244  2.43  0.  0.
245  2.44  0.  0.
246  2.45  0.  0.
247  2.46  0.  0.