Ho    ONCVPSP-4.0.1  r_core=   1.80265   1.50651   1.65783   1.80265
67.0000     21.0000      221106    zatom,zion,pspd
8      11   3     4   600     0    pspcod,pspxc,lmax,lloc,mmax,r2well
5.99000000  0.25000000  0.00000000    rchrg fchrg qchrg
2     2     2     2     0    nproj
1     1           extension_switch
0                         8.5296145311878E+00  5.5425394091009E-01
1  0.0000000000000E+00  2.4912233387298E-10 -1.2073743810292E-09
2  1.0000000000000E-02  4.7494811594492E-02 -7.2237805175468E-03
3  2.0000000000000E-02  9.4960682030246E-02 -1.4514263854515E-02
4  3.0000000000000E-02  1.4236833999804E-01 -2.1936570051778E-02
5  4.0000000000000E-02  1.8968785895937E-01 -2.9552676783636E-02
6  5.0000000000000E-02  2.3688834214686E-01 -3.7419905838980E-02
7  6.0000000000000E-02  2.8393762252347E-01 -4.5589477930834E-02
8  7.0000000000000E-02  3.3080198239089E-01 -5.4105157173939E-02
9  8.0000000000000E-02  3.7744589708788E-01 -6.3002005362671E-02
10  9.0000000000000E-02  4.2383180691427E-01 -7.2305264701864E-02
11  1.0000000000000E-01  4.6991992105747E-01 -8.2029385909772E-02
12  1.1000000000000E-01  5.1566805689245E-01 -9.2177216648263E-02
13  1.2000000000000E-01  5.6103151757572E-01 -1.0273936306574E-01
14  1.3000000000000E-01  6.0596301036707E-01 -1.1369373489059E-01
15  1.4000000000000E-01  6.5041260759326E-01 -1.2500528201895E-01
16  1.5000000000000E-01  6.9432775162403E-01 -1.3662592793126E-01
17  1.6000000000000E-01  7.3765330466801E-01 -1.4849470258229E-01
18  1.7000000000000E-01  7.8033164362216E-01 -1.6053807467414E-01
19  1.8000000000000E-01  8.2230279963006E-01 -1.7267048047613E-01
20  1.9000000000000E-01  8.6350464142910E-01 -1.8479504363744E-01
21  2.0000000000000E-01  9.0387310100143E-01 -1.9680447778098E-01
22  2.1000000000000E-01  9.4334243949564E-01 -2.0858216110849E-01
23  2.2000000000000E-01  9.8184555086229E-01 -2.2000336981891E-01
24  2.3000000000000E-01  1.0193143001534E+00 -2.3093665487892E-01
25  2.4000000000000E-01  1.0556798929798E+00 -2.4124534461566E-01
26  2.5000000000000E-01  1.0908732722066E+00 -2.5078915375616E-01
27  2.6000000000000E-01  1.1248255376027E+00 -2.5942587794080E-01
28  2.7000000000000E-01  1.1574683838449E+00 -2.6701315141154E-01
29  2.8000000000000E-01  1.1887345520248E+00 -2.7341024453982E-01
30  2.9000000000000E-01  1.2185582896072E+00 -2.7847987712727E-01
31  3.0000000000000E-01  1.2468758136564E+00 -2.8209002299883E-01
32  3.1000000000000E-01  1.2736257720794E+00 -2.8411568131705E-01
33  3.2000000000000E-01  1.2987496976272E+00 -2.8444059028444E-01
34  3.3000000000000E-01  1.3221924494624E+00 -2.8295885946440E-01
35  3.4000000000000E-01  1.3439026372224E+00 -2.7957649783647E-01
36  3.5000000000000E-01  1.3638330227029E+00 -2.7421281589914E-01
37  3.6000000000000E-01  1.3819408945334E+00 -2.6680168162864E-01
38  3.7000000000000E-01  1.3981884115276E+00 -2.5729261187785E-01
39  3.8000000000000E-01  1.4125429107552E+00 -2.4565168283538E-01
40  3.9000000000000E-01  1.4249771767939E+00 -2.3186224543338E-01
41  4.0000000000000E-01  1.4354696690772E+00 -2.1592543406862E-01
42  4.1000000000000E-01  1.4440047047530E+00 -1.9786045965179E-01
43  4.2000000000000E-01  1.4505725949915E+00 -1.7770468079003E-01
44  4.3000000000000E-01  1.4551697332416E+00 -1.5551344980565E-01
45  4.4000000000000E-01  1.4577986345014E+00 -1.3135973325684E-01
46  4.5000000000000E-01  1.4584679252581E+00 -1.0533350961995E-01
47  4.6000000000000E-01  1.4571922843375E+00 -7.7540949774593E-02
48  4.7000000000000E-01  1.4539923354876E+00 -4.8103388865500E-02
49  4.8000000000000E-01  1.4488944930952E+00 -1.7156100957347E-02
50  4.9000000000000E-01  1.4419307629864E+00  1.5153109386834E-02
51  5.0000000000000E-01  1.4331385007903E+00  4.8665481923861E-02
52  5.1000000000000E-01  1.4225601308409E+00  8.3213022916725E-02
53  5.2000000000000E-01  1.4102428290455E+00  1.1862035354501E-01
54  5.3000000000000E-01  1.3962381735604E+00  1.5470666154380E-01
55  5.4000000000000E-01  1.3806017674718E+00  1.9128773151424E-01
56  5.5000000000000E-01  1.3633928379839E+00  2.2817802809952E-01
57  5.6000000000000E-01  1.3446738168619E+00  2.6519280530639E-01
58  5.7000000000000E-01  1.3245099070552E+00  3.0215021468245E-01
59  5.8000000000000E-01  1.3029686405483E+00  3.3887338485059E-01
60  5.9000000000000E-01  1.2801194325293E+00  3.7519244505387E-01
61  6.0000000000000E-01  1.2560331369560E+00  4.1094646588229E-01
62  6.1000000000000E-01  1.2307816085091E+00  4.4598529122866E-01
63  6.2000000000000E-01  1.2044372757775E+00  4.8017123674931E-01
64  6.3000000000000E-01  1.1770727303025E+00  5.1338063166911E-01
65  6.4000000000000E-01  1.1487603358404E+00  5.4550518265236E-01
66  6.5000000000000E-01  1.1195718618671E+00  5.7645314063890E-01
67  6.6000000000000E-01  1.0895781449717E+00  6.0615025398816E-01
68  6.7000000000000E-01  1.0588487813556E+00  6.3454049395537E-01
69  6.8000000000000E-01  1.0274518531877E+00  6.6158654140536E-01
70  6.9000000000000E-01  9.9545369106246E-01  6.8727002671555E-01
71  7.0000000000000E-01  9.6291867428361E-01  7.1159151798765E-01
72  7.1000000000000E-01  9.2990907014651E-01  7.3457025593820E-01
73  7.2000000000000E-01  8.9648491283673E-01  7.5624363712493E-01
74  7.3000000000000E-01  8.6270392200227E-01  7.7666645044528E-01
75  7.4000000000000E-01  8.2862146050072E-01  7.9590987507330E-01
76  7.5000000000000E-01  7.9429053028187E-01  8.1406025113213E-01
77  7.6000000000000E-01  7.5976180484412E-01  8.3121763739472E-01
78  7.7000000000000E-01  7.2508369621104E-01  8.4749417311871E-01
79  7.8000000000000E-01  6.9030245391620E-01  8.6301226371782E-01
80  7.9000000000000E-01  6.5546229306926E-01  8.7790261231342E-01
81  8.0000000000000E-01  6.2060554820794E-01  8.9230212126531E-01
82  8.1000000000000E-01  5.8577284932541E-01  9.0635168952157E-01
83  8.2000000000000E-01  5.5100331620414E-01  9.2019393303043E-01
84  8.3000000000000E-01  5.1633476698978E-01  9.3397085650299E-01
85  8.4000000000000E-01  4.8180393680319E-01  9.4782150549278E-01
86  8.5000000000000E-01  4.4744670211832E-01  9.6187962805562E-01
87  8.6000000000000E-01  4.1329830662698E-01  9.7627137517278E-01
88  8.7000000000000E-01  3.7939358436973E-01  9.9111306866106E-01
89  8.8000000000000E-01  3.4576717603152E-01  1.0065090644684E+00
90  8.9000000000000E-01  3.1245373448030E-01  1.0225497380752E+00
91  9.0000000000000E-01  2.7948811586172E-01  1.0393096172098E+00
92  9.1000000000000E-01  2.4690555284904E-01  1.0568456852687E+00
93  9.2000000000000E-01  2.1474180697888E-01  1.0751958767364E+00
94  9.3000000000000E-01  1.8303329737419E-01  1.0943777835601E+00
95  9.4000000000000E-01  1.5181720355855E-01  1.1143875888909E+00
96  9.5000000000000E-01  1.2113154049375E-01  1.1351992418935E+00
97  9.6000000000000E-01  9.1015204416774E-02  1.1567638844956E+00
98  9.7000000000000E-01  6.1507988505306E-02  1.1790095380452E+00
99  9.8000000000000E-01  3.2650567853924E-02  1.2018410549023E+00
100  9.9000000000000E-01  4.4844536880148E-03  1.2251403370735E+00
101  1.0000000000000E+00 -2.2948082828670E-02  1.2487668211364E+00
102  1.0100000000000E+00 -4.9604116432700E-02  1.2725582259403E+00
103  1.0200000000000E+00 -7.5440202112434E-02  1.2963315569596E+00
104  1.0300000000000E+00 -1.0041253650378E-01  1.3198843587423E+00
105  1.0400000000000E+00 -1.2447714457082E-01  1.3429962046805E+00
106  1.0500000000000E+00 -1.4759008956938E-01  1.3654304113560E+00
107  1.0600000000000E+00 -1.6970770410224E-01  1.3869359630084E+00
108  1.0700000000000E+00 -1.9078683994046E-01  1.4072496302493E+00
109  1.0800000000000E+00 -2.1078513420765E-01  1.4260982660150E+00
110  1.0900000000000E+00 -2.2966128950328E-01  1.4432012609180E+00
111  1.1000000000000E+00 -2.4737536557576E-01  1.4582731396135E+00
112  1.1100000000000E+00 -2.6388908024271E-01  1.4710262795324E+00
113  1.1200000000000E+00 -2.7916611739020E-01  1.4811737333281E+00
114  1.1300000000000E+00 -2.9317244006023E-01  1.4884321366088E+00
115  1.1400000000000E+00 -3.0587660684553E-01  1.4925246829426E+00
116  1.1500000000000E+00 -3.1725009004874E-01  1.4931841486932E+00
117  1.1600000000000E+00 -3.2726759431295E-01  1.4901559509048E+00
118  1.1700000000000E+00 -3.3590737468719E-01  1.4832012221619E+00
119  1.1800000000000E+00 -3.4315155333425E-01  1.4720998870212E+00
120  1.1900000000000E+00 -3.4898643431018E-01  1.4566537251904E+00
121  1.2000000000000E+00 -3.5340281602644E-01  1.4366894070265E+00
122  1.2100000000000E+00 -3.5639630113202E-01  1.4120614870624E+00
123  1.2200000000000E+00 -3.5796760360608E-01  1.3826553410543E+00
124  1.2300000000000E+00 -3.5812285281476E-01  1.3483900313918E+00
125  1.2400000000000E+00 -3.5687389413922E-01  1.3092210845164E+00
126  1.2500000000000E+00 -3.5423858550647E-01  1.2651431621626E+00
127  1.2600000000000E+00 -3.5024108873396E-01  1.2161926056769E+00
128  1.2700000000000E+00 -3.4491215400588E-01  1.1624498292483E+00
129  1.2800000000000E+00 -3.3828939502381E-01  1.1040415335410E+00
130  1.2900000000000E+00 -3.3041755138945E-01  1.0411427058151E+00
131  1.3000000000000E+00 -3.2134873356116E-01  9.7397836604390E-01
132  1.3100000000000E+00 -3.1114264426599E-01  9.0282501071086E-01
133  1.3200000000000E+00 -2.9986676852289E-01  8.2801169678479E-01
134  1.3300000000000E+00 -2.8759652240673E-01  7.4992069764420E-01
135  1.3400000000000E+00 -2.7441534835671E-01  6.6898765044873E-01
136  1.3500000000000E+00 -2.6041474217961E-01  5.8570110049225E-01
137  1.3600000000000E+00 -2.4569419388297E-01  5.0060133222889E-01
138  1.3700000000000E+00 -2.3036102109422E-01  4.1427835892939E-01
139  1.3800000000000E+00 -2.1453007004599E-01  3.2736892312031E-01
140  1.3900000000000E+00 -1.9832325492727E-01  2.4055233803438E-01
141  1.4000000000000E+00 -1.8186890177056E-01  1.5454497602234E-01
142  1.4100000000000E+00 -1.6530085795881E-01  7.0093183188698E-02
143  1.4200000000000E+00 -1.4875732287894E-01 -1.2035629653765E-02
144  1.4300000000000E+00 -1.3237934916572E-01 -9.1064001572714E-02
145  1.4400000000000E+00 -1.1630895739774E-01 -1.6621785811272E-01
146  1.4500000000000E+00 -1.0068679993360E-01 -2.3674272411301E-01
147  1.4600000000000E+00 -8.5649301840865E-02 -3.0192310770869E-01
148  1.4700000000000E+00 -7.1325198528794E-02 -3.6110549445814E-01
149  1.4800000000000E+00 -5.7831380503335E-02 -4.1372543942929E-01
150  1.4900000000000E+00 -4.5267940412487E-02 -4.5933933471488E-01
151  1.5000000000000E+00 -3.3712403019632E-02 -4.9766081442451E-01
152  1.5100000000000E+00 -2.3212532804559E-02 -5.2860586312050E-01
153  1.5200000000000E+00 -1.3783960434137E-02 -5.5230248212221E-01
154  1.5300000000000E+00 -5.4234669348866E-03 -5.6899134300916E-01
155  1.5400000000000E+00  1.8817200546119E-03 -5.7895900675557E-01
156  1.5500000000000E+00  8.1537453880909E-03 -5.8253704219470E-01
157  1.5600000000000E+00  1.3423576358029E-02 -5.8009865030282E-01
158  1.5700000000000E+00  1.7730462508092E-02 -5.7205554009062E-01
159  1.5800000000000E+00  2.1121314405868E-02 -5.5885438282540E-01
160  1.5900000000000E+00  2.3650004945162E-02 -5.4097286083215E-01
161  1.6000000000000E+00  2.5376601913717E-02 -5.1891536086295E-01
162  1.6100000000000E+00  2.6366540928407E-02 -4.9320836237431E-01
163  1.6200000000000E+00  2.6689745313925E-02 -4.6439555316219E-01
164  1.6300000000000E+00  2.6419704149370E-02 -4.3303273502996E-01
165  1.6400000000000E+00  2.5632516999763E-02 -3.9968256332736E-01
166  1.6500000000000E+00  2.4405915914710E-02 -3.6490917743227E-01
167  1.6600000000000E+00  2.2818275106843E-02 -3.2927277767842E-01
168  1.6700000000000E+00  2.0947618973100E-02 -2.9332420563856E-01
169  1.6800000000000E+00  1.8870641107699E-02 -2.5759959294615E-01
170  1.6900000000000E+00  1.6661725649678E-02 -2.2261505564978E-01
171  1.7000000000000E+00  1.4392057644582E-02 -1.8886180155794E-01
172  1.7100000000000E+00  1.2128689699281E-02 -1.5680114122794E-01
173  1.7200000000000E+00  9.9314408568655E-03 -1.2685045502474E-01
174  1.7300000000000E+00  7.8524592936371E-03 -9.9380095579477E-02
175  1.7400000000000E+00  5.9440281782527E-03 -7.4745235385632E-02
176  1.7500000000000E+00  4.2511178171314E-03 -5.3254579962137E-02
177  1.7600000000000E+00  2.8107287556375E-03 -3.5166857847821E-02
178  1.7700000000000E+00  1.6513839347669E-03 -2.0688079748520E-02
179  1.7800000000000E+00  7.9291964943887E-04 -9.9715851937394E-03
180  1.7900000000000E+00  2.4387791555000E-04 -3.0863684219781E-03
181  1.8000000000000E+00  1.8217582763679E-05 -2.3280003492697E-04
182  1.8100000000000E+00 -5.7933677440282E-06  7.4272202508994E-05
183  1.8200000000000E+00  2.3612147881955E-06 -3.0095523738205E-05
184  1.83 -0.  0.
185  1.84 -0. -0.
186  1.85  0.  0.
187  1.86  0.  0.
188  1.87  0.  0.
189  1.88  0.  0.
190  1.89  0.  0.
191  1.90  0.  0.
192  1.91  0.  0.
193  1.92  0.  0.
194  1.93  0.  0.
195  1.94  0.  0.
196  1.95  0.  0.
197  1.96  0.  0.
198  1.97  0.  0.
199  1.98  0.  0.
200  1.99  0.  0.
201  2.00  0.  0.
202  2.01  0.  0.
203  2.02  0.  0.
204  2.03  0.  0.
205  2.04  0.  0.
206  2.05  0.  0.
207  2.06  0.  0.
208  2.07  0.  0.
209  2.08  0.  0.
210  2.09  0.  0.
211  2.10  0.  0.
212  2.11  0.  0.
213  2.12  0.  0.
214  2.13  0.  0.
215  2.14  0.  0.
216  2.15  0.  0.
217  2.16  0.  0.
218  2.17  0.  0.
219  2.18  0.  0.
220  2.19  0.  0.
221  2.20  0.  0.
222  2.21  0.  0.
223  2.22  0.  0.
224  2.23  0.  0.
225  2.24  0.  0.
226  2.25  0.  0.
227  2.26  0.  0.
228  2.27  0.  0.
229  2.28  0.  0.
230  2.29  0.  0.
231  2.30  0.  0.
232  2.31  0.  0.
233  2.32  0.  0.
234  2.33  0.  0.
235  2.34  0.  0.
236  2.35  0.  0.
237  2.36  0.  0.
238  2.37  0.  0.
239  2.38  0.  0.
240  2.39  0.  0.
241  2.40  0.  0.
242  2.41  0.  0.
243  2.42  0.  0.
244  2.43  0.  0.
245  2.44  0.  0.
246  2.45  0.  0.
247  2.46  0.  0.
248  2.47  0.  0.
249  2.48  0.  0.
250  2.49  0.  0.
251  2.50  0.  0.
252  2.51  0.  0.
253  2.52  0.  0.
254  2.53  0.  0.
255  2.54  0.  0.
256  2.55  0.  0.
257  2.56  0.  0.
258  2.57  0.  0.
259  2.58  0.  0.
260  2.59  0.  0.
261  2.60  0.  0.
262  2.61  0.  0.
263  2.62  0.  0.
264  2.63  0.  0.
265  2.64  0.  0.
266  2.65  0.  0.
267  2.66  0.  0.
268  2.67  0.  0.
269  2.68  0.  0.
270  2.69  0.  0.
271  2.70  0.  0.
272  2.71  0.  0.
273  2.72  0.  0.
274  2.73  0.  0.
275  2.74  0.  0.
276  2.75  0.  0.
277  2.76  0.  0.
278  2.77  0.  0.
279  2.78  0.  0.
280  2.79  0.  0.
281  2.80  0.  0.
282  2.81  0.  0.
283  2.82  0.  0.
284  2.83  0.  0.
285  2.84  0.  0.
286  2.85  0.  0.
287  2.86  0.  0.
288  2.87  0.  0.
289  2.88  0.  0.
290  2.89  0.  0.
291  2.90  0.  0.
292  2.91  0.  0.
293  2.92  0.  0.
294  2.93  0.  0.
295  2.94  0.  0.
296  2.95  0.  0.
297  2.96  0.  0.
298  2.97  0.  0.
299  2.98  0.  0.
300  2.99  0.  0.
301  3.00  0.  0.
302  3.01  0.  0.
303  3.02  0.  0.
304  3.03  0.  0.
305  3.04  0.  0.
306  3.05  0.  0.
307  3.06  0.  0.
308  3.07  0.  0.
309  3.08  0.  0.
310  3.09  0.  0.
311  3.10  0.  0.
312  3.11  0.  0.
313  3.12  0.  0.
314  3.13  0.  0.
315  3.14  0.  0.
316  3.15  0.  0.
317  3.16  0.  0.
318  3.17  0.  0.
319  3.18  0.  0.
320  3.19  0.  0.
321  3.20  0.  0.
322  3.21  0.  0.
323  3.22  0.  0.
324  3.23  0.  0.
325  3.24  0.  0.
326  3.25  0.  0.
327  3.26  0.  0.
328  3.27  0.  0.
329  3.28  0.  0.
330  3.29  0.  0.
331  3.30  0.  0.
332  3.31  0.  0.
333  3.32  0.  0.
334  3.33  0.  0.
335  3.34  0.  0.
336  3.35  0.  0.
337  3.36  0.  0.
338  3.37  0.  0.
339  3.38  0.  0.
340  3.39  0.  0.
341  3.40  0.  0.
342  3.41  0.  0.
343  3.42  0.  0.
344  3.43  0.  0.
345  3.44  0.  0.
346  3.45  0.  0.
347  3.46  0.  0.
348  3.47  0.  0.
349  3.48  0.  0.
350  3.49  0.  0.
351  3.50  0.  0.
352  3.51  0.  0.
353  3.52  0.  0.
354  3.53  0.  0.
355  3.54  0.  0.
356  3.55  0.  0.
357  3.56  0.  0.
358  3.57  0.  0.
359  3.58  0.  0.
360  3.59  0.  0.
361  3.60  0.  0.
362  3.61  0.  0.
363  3.62  0.  0.
364  3.63  0.  0.
365  3.64  0.  0.
366  3.65  0.  0.
367  3.66  0.  0.
368  3.67  0.  0.
369  3.68  0.  0.
370  3.69  0.  0.
371  3.70  0.  0.
372  3.71  0.  0.
373  3.72  0.  0.
374  3.73  0.  0.
375  3.74  0.  0.
376  3.75  0.  0.
377  3.76  0.  0.
378  3.77  0.  0.
379  3.78  0.  0.
380  3.79  0.  0.
381  3.80  0.  0.
382  3.81  0.  0.
383  3.82  0.  0.
384  3.83  0.  0.
385  3.84  0.  0.
386  3.85  0.  0.
387  3.86  0.  0.
388  3.87  0.  0.
389  3.88  0.  0.
390  3.89  0.  0.
391  3.90  0.  0.
392  3.91  0.  0.
393  3.92  0.  0.
394  3.93  0.  0.
395  3.94  0.  0.
396  3.95  0.  0.
397  3.96  0.  0.
398  3.97  0.  0.
399  3.98  0.  0.
400  3.99  0.  0.
401  4.00  0.  0.
402  4.01  0.  0.
403  4.02  0.  0.
404  4.03  0.  0.
405  4.04  0.  0.
406  4.05  0.  0.
407  4.06  0.  0.
408  4.07  0.  0.
409  4.08  0.  0.
410  4.09  0.  0.
411  4.10  0.  0.
412  4.11  0.  0.
413  4.12  0.  0.
414  4.13  0.  0.
415  4.14  0.  0.
416  4.15  0.  0.
417  4.16  0.  0.
418  4.17  0.  0.
419  4.18  0.  0.
420  4.19  0.  0.
421  4.20  0.  0.
422  4.21  0.  0.
423  4.22  0.  0.
424  4.23  0.  0.
425  4.24  0.  0.
426  4.25  0.  0.
427  4.26  0.  0.
428  4.27  0.  0.
429  4.28  0.  0.
430  4.29  0.  0.
431  4.30  0.  0.
432  4.31  0.  0.
433  4.32  0.  0.
434  4.33  0.  0.
435  4.34  0.  0.
436  4.35  0.  0.
437  4.36  0.  0.
438  4.37  0.  0.
439  4.38  0.  0.
440  4.39  0.  0.
441  4.40  0.  0.
442  4.41  0.  0.
443  4.42  0.  0.
444  4.43  0.  0.
445  4.44  0.  0.
446  4.45  0.  0.
447  4.46  0.  0.
448  4.47  0.  0.
449  4.48  0.  0.
450  4.49  0.  0.
451  4.50  0.  0.
452  4.51  0.  0.
453  4.52  0.  0.
454  4.53  0.  0.
455  4.54  0.  0.
456  4.55  0.  0.
457  4.56  0.  0.
458  4.57  0.  0.
459  4.58  0.  0.
460  4.59  0.  0.
461  4.60  0.  0.
462  4.61  0.  0.
463  4.62  0.  0.
464  4.63  0.  0.
465  4.64  0.  0.
466  4.65  0.  0.
467  4.66  0.  0.
468  4.67  0.  0.
469  4.68  0.  0.
470  4.69  0.  0.
471  4.70  0.  0.
472  4.71  0.  0.
473  4.72  0.  0.
474  4.73  0.  0.
475  4.74  0.  0.
476  4.75  0.  0.
477  4.76  0.  0.
478  4.77  0.  0.
479  4.78  0.  0.
480  4.79  0.  0.
481  4.80  0.  0.
482  4.81  0.  0.
483  4.82  0.  0.
484  4.83  0.  0.
485  4.84  0.  0.
486  4.85  0.  0.
487  4.86  0.  0.
488  4.87  0.  0.
489  4.88  0.  0.
490  4.89  0.  0.
491  4.90  0.  0.
492  4.91  0.  0.
493  4.92  0.  0.
494  4.93  0.  0.
495  4.94  0.  0.
496  4.95  0.  0.
497  4.96  0.  0.
498  4.97  0.  0.
499  4.98  0.  0.
500  4.99  0.  0.
501  5.00  0.  0.
502  5.01  0.  0.
503  5.02  0.  0.
504  5.03  0.  0.
505  5.04  0.  0.
506  5.05  0.  0.
507  5.06  0.  0.
508  5.07  0.  0.
509  5.08  0.  0.
510  5.09  0.  0.
511  5.10  0.  0.
512  5.11  0.  0.
513  5.12  0.  0.
514  5.13  0.  0.
515  5.14  0.  0.
516  5.15  0.  0.
517  5.16  0.  0.
518  5.17  0.  0.
519  5.18  0.  0.
520  5.19  0.  0.
521  5.20  0.  0.
522  5.21  0.  0.
523  5.22  0.  0.
524  5.23  0.  0.
525  5.24  0.  0.
526  5.25  0.  0.
527  5.26  0.  0.
528  5.27  0.  0.
529  5.28  0.  0.
530  5.29  0.  0.
531  5.30  0.  0.
532  5.31  0.  0.
533  5.32  0.  0.
534  5.33  0.  0.
535  5.34  0.  0.
536  5.35  0.  0.
537  5.36  0.  0.
538  5.37  0.  0.
539  5.38  0.  0.
540  5.39  0.  0.
541  5.40  0.  0.
542  5.41  0.  0.
543  5.42  0.  0.
544  5.43  0.  0.
545  5.44  0.  0.
546  5.45  0.  0.
547  5.46  0.  0.
548  5.47  0.  0.
549  5.48  0.  0.
550  5.49  0.  0.
551  5.50  0.  0.
552  5.51  0.  0.
553  5.52  0.  0.
554  5.53  0.  0.
555  5.54  0.  0.
556  5.55  0.  0.
557  5.56  0.  0.
558  5.57  0.  0.
559  5.58  0.  0.
560  5.59  0.  0.
561  5.60  0.  0.
562  5.61  0.  0.
563  5.62  0.  0.
564  5.63  0.  0.
565  5.64  0.  0.
566  5.65  0.  0.
567  5.66  0.  0.
568  5.67  0.  0.
569  5.68  0.  0.
570  5.69  0.  0.
571  5.70  0.  0.
572  5.71  0.  0.
573  5.72  0.  0.
574  5.73  0.  0.
575  5.74  0.  0.
576  5.75  0.  0.
577  5.76  0.  0.
578  5.77  0.  0.
579  5.78  0.  0.
580  5.79  0.  0.
581  5.80  0.  0.
582  5.81  0.  0.
583  5.82  0.  0.
584  5.83  0.  0.
585  5.84  0.  0.
586  5.85  0.  0.
587  5.86  0.  0.
588  5.87  0.  0.
589  5.88  0.  0.
590  5.89  0.  0.
591  5.90  0.  0.
592  5.91  0.  0.
593  5.92  0.  0.
594  5.93  0.  0.
595  5.94  0.  0.
596  5.95  0.  0.
597  5.96  0.  0.
598  5.97  0.  0.
599  5.98  0.  0.
600  5.99  0.  0.
1                         6.4168538505322E+00  1.2652967207837E-01
1  0.0000000000000E+00  3.5072845183670E-09 -6.6374606144670E-08
2  1.0000000000000E-02  1.3613419174859E-03 -3.1945328236605E-03
3  2.0000000000000E-02  5.4377655335771E-03 -1.2698655753365E-02
4  3.0000000000000E-02  1.2206566746872E-02 -2.8275748273961E-02
5  4.0000000000000E-02  2.1630244298301E-02 -4.9537423282497E-02
6  5.0000000000000E-02  3.3657000777395E-02 -7.5952358797250E-02
7  6.0000000000000E-02  4.8221429480316E-02 -1.0685838760557E-01
8  7.0000000000000E-02  6.5245372953435E-02 -1.4147757727609E-01
9  8.0000000000000E-02  8.4638935548976E-02 -1.7893396658622E-01
10  9.0000000000000E-02  1.0630162920064E-01 -2.1827356529627E-01
11  1.0000000000000E-01  1.3012362896627E-01 -2.5848617363166E-01
12  1.1000000000000E-01  1.5598711274037E-01 -2.9852853691886E-01
13  1.2000000000000E-01  1.8376765795898E-01 -3.3734832046171E-01
14  1.3000000000000E-01  2.1333566713867E-01 -3.7390837061499E-01
15  1.4000000000000E-01  2.4455779373249E-01 -4.0721072054740E-01
16  1.5000000000000E-01  2.7729834005637E-01 -4.3631980356687E-01
17  1.6000000000000E-01  3.1142059993611E-01 -4.6038435303650E-01
18  1.7000000000000E-01  3.4678812022660E-01 -4.7865749551500E-01
19  1.8000000000000E-01  3.8326585743140E-01 -4.9051458223484E-01
20  1.9000000000000E-01  4.2072120825468E-01 -4.9546835257840E-01
21  2.0000000000000E-01  4.5902489599433E-01 -4.9318108079920E-01
22  2.1000000000000E-01  4.9805169816589E-01 -4.8347342263407E-01
23  2.2000000000000E-01  5.3768100455582E-01 -4.6632975026945E-01
24  2.3000000000000E-01  5.7779719895594E-01 -4.4189984081980E-01
25  2.4000000000000E-01  6.1828986203832E-01 -4.1049686339737E-01
26  2.5000000000000E-01  6.5905379709840E-01 -3.7259169128019E-01
27  2.6000000000000E-01  6.9998888462835E-01 -3.2880364685285E-01
28  2.7000000000000E-01  7.4099977578795E-01 -2.7988786614066E-01
29  2.8000000000000E-01  7.8199543872358E-01 -2.2671954515686E-01
30  2.9000000000000E-01  8.2288857525950E-01 -1.7027540027975E-01
31  3.0000000000000E-01  8.6359492866786E-01 -1.1161273793352E-01
32  3.1000000000000E-01  9.0403250594048E-01 -5.1846583559255E-02
33  3.2000000000000E-01  9.4412074017331E-01  7.8746349897765E-03
34  3.3000000000000E-01  9.8377962028048E-01  6.6394319941322E-02
35  3.4000000000000E-01  1.0229288162393E+00  1.2257329913577E-01
36  3.5000000000000E-01  1.0614868284036E+00  1.7531522053988E-01
37  3.6000000000000E-01  1.0993701890965E+00  2.2359118273348E-01
38  3.7000000000000E-01  1.1364927437123E+00  2.6646305171012E-01
39  3.8000000000000E-01  1.1727650369246E+00  3.0310493975687E-01
40  3.9000000000000E-01  1.2080938273641E+00  3.3282235919591E-01
41  4.0000000000000E-01  1.2423817513175E+00  3.5506861164317E-01
42  4.1000000000000E-01  1.2755271526826E+00  3.6945803119285E-01
43  4.2000000000000E-01  1.3074240926535E+00  3.7577576637671E-01
44  4.3000000000000E-01  1.3379625484874E+00  3.7398385948811E-01
45  4.4000000000000E-01  1.3670288063055E+00  3.6422346134887E-01
46  4.5000000000000E-01  1.3945060483019E+00  3.4681310314540E-01
47  4.6000000000000E-01  1.4202751300763E+00  3.2224303278770E-01
48  4.7000000000000E-01  1.4442155391665E+00  2.9116570950518E-01
49  4.8000000000000E-01  1.4662065213431E+00  2.5438263522041E-01
50  4.9000000000000E-01  1.4861283569412E+00  2.1282778279418E-01
51  5.0000000000000E-01  1.5038637655347E+00  1.6754795772095E-01
52  5.1000000000000E-01  1.5192994137071E+00  1.1968049958232E-01
53  5.2000000000000E-01  1.5323274976161E+00  7.0428790988747E-02
54  5.3000000000000E-01  1.5428473695593E+00  2.1036093456308E-02
55  5.4000000000000E-01  1.5507671758948E+00 -2.7241729498977E-02
56  5.5000000000000E-01  1.5560054724922E+00 -7.3164012782734E-02
57  5.6000000000000E-01  1.5584927834269E+00 -1.1553300797225E-01
58  5.7000000000000E-01  1.5581730689022E+00 -1.5322091029390E-01
59  5.8000000000000E-01  1.5550050693883E+00 -1.8519559499873E-01
60  5.9000000000000E-01  1.5489634947032E+00 -2.1054448664474E-01
61  6.0000000000000E-01  1.5400400291867E+00 -2.2849602031184E-01
62  6.1000000000000E-01  1.5282441272012E+00 -2.3843820129860E-01
63  6.2000000000000E-01  1.5136035768711E+00 -2.3993382844739E-01
64  6.3000000000000E-01  1.4961648141777E+00 -2.3273201474000E-01
65  6.4000000000000E-01  1.4759929741667E+00 -2.1677571579887E-01
66  6.5000000000000E-01  1.4531716710203E+00 -1.9220506082799E-01
67  6.6000000000000E-01  1.4278025039866E+00 -1.5935636957961E-01
68  6.7000000000000E-01  1.4000042915298E+00 -1.1875683126170E-01
69  6.8000000000000E-01  1.3699120414762E+00 -7.1114914950233E-02
70  6.9000000000000E-01  1.3376756702384E+00 -1.7306674027419E-02
71  7.0000000000000E-01  1.3034584893217E+00  4.1641802556388E-02
72  7.1000000000000E-01  1.2674354821152E+00  1.0457545377949E-01
73  7.2000000000000E-01  1.2297913983655E+00  1.7023440728046E-01
74  7.3000000000000E-01  1.1907186976044E+00  2.3728074897054E-01
75  7.4000000000000E-01  1.1504153760880E+00  3.0432735218929E-01
76  7.5000000000000E-01  1.1090827144116E+00  3.6996816731722E-01
77  7.6000000000000E-01  1.0669229848439E+00  4.3280933539273E-01
78  7.7000000000000E-01  1.0241371585245E+00  4.9150046519228E-01
79  7.8000000000000E-01  9.8092265296018E-01  5.4476540302989E-01
80  7.9000000000000E-01  9.3747115972808E-01  5.9143182854468E-01
81  8.0000000000000E-01  8.9396659095369E-01  6.3045902798085E-01
82  8.1000000000000E-01  8.5058318099376E-01  6.6096322864368E-01
83  8.2000000000000E-01  8.0748377686700E-01  6.8223992374882E-01
84  8.3000000000000E-01  7.6481834738726E-01  6.9378267489057E-01
85  8.4000000000000E-01  7.2272273673863E-01  6.9529794869533E-01
86  8.5000000000000E-01  6.8131768347319E-01  6.8671562349395E-01
87  8.6000000000000E-01  6.4070812070584E-01  6.6819488943212E-01
88  8.7000000000000E-01  6.0098276773404E-01  6.4012535952853E-01
89  8.8000000000000E-01  5.6221401753670E-01  6.0312330784199E-01
90  8.9000000000000E-01  5.2445811872621E-01  5.5802305205644E-01
91  9.0000000000000E-01  4.8775564466242E-01  5.0586359931905E-01
92  9.1000000000000E-01  4.5213223671049E-01  4.4787077393317E-01
93  9.2000000000000E-01  4.1759960315580E-01  3.8543514139362E-01
94  9.3000000000000E-01  3.8415675019314E-01  3.2008613324813E-01
95  9.4000000000000E-01  3.5179141679309E-01  2.5346285942642E-01
96  9.5000000000000E-01  3.2048168121168E-01  1.8728216726735E-01
97  9.6000000000000E-01  2.9019770353724E-01  1.2330456792824E-01
98  9.7000000000000E-01  2.6090356603148E-01  6.3298699854613E-02
99  9.8000000000000E-01  2.3255917117645E-01  9.0050344682785E-03
100  9.9000000000000E-01  2.0512215632424E-01 -3.7900449575854E-02
101  1.0000000000000E+00  1.7854978368512E-01 -7.5841890800636E-02
102  1.0100000000000E+00  1.5280076508216E-01 -1.0337774371287E-01
103  1.0200000000000E+00  1.2783698243539E-01 -1.1923285099111E-01
104  1.0300000000000E+00  1.0362506728122E-01 -1.2232772561946E-01
105  1.0400000000000E+00  8.0137805731733E-02 -1.1180443058174E-01
106  1.0500000000000E+00  5.7355339068978E-02 -8.7048507261249E-02
107  1.0600000000000E+00  3.5266134574206E-02 -4.7706478422145E-02
108  1.0700000000000E+00  1.3867706102225E-02  6.3014642160255E-03
109  1.0800000000000E+00 -6.8329307532300E-03  7.4773885583393E-02
110  1.0900000000000E+00 -2.6819078436981E-02  1.5722584590750E-01
111  1.1000000000000E+00 -4.6064455883116E-02  2.5289205037212E-01
112  1.1100000000000E+00 -6.4533573506239E-02  3.6073540398013E-01
113  1.1200000000000E+00 -8.2182376822164E-02  4.7946086265203E-01
114  1.1300000000000E+00 -9.8959145174753E-02  6.0753437041550E-01
115  1.1400000000000E+00 -1.1480562677261E-01  7.4320657640395E-01
116  1.1500000000000E+00 -1.2965838634887E-01  8.8454093497706E-01
117  1.1600000000000E+00 -1.4345033741970E-01  1.0294457106724E+00
118  1.1700000000000E+00 -1.5611242735253E-01  1.1757093371766E+00
119  1.1800000000000E+00 -1.6757544039624E-01  1.3210385185275E+00
120  1.1900000000000E+00 -1.7777188148597E-01  1.4630984115049E+00
121  1.2000000000000E+00 -1.8663790208558E-01  1.5995541920140E+00
122  1.2100000000000E+00 -1.9411522857863E-01  1.7281132853664E+00
123  1.2200000000000E+00 -2.0015305377914E-01  1.8465675310281E+00
124  1.2300000000000E+00 -2.0470985297940E-01  1.9528345563565E+00
125  1.2400000000000E+00 -2.0775508757321E-01  2.0449976508012E+00
126  1.2500000000000E+00 -2.0927076161610E-01  2.1213434609938E+00
127  1.2600000000000E+00 -2.0925279964965E-01  2.1803968670476E+00
128  1.2700000000000E+00 -2.0771221766432E-01  2.2209524502125E+00
129  1.2800000000000E+00 -2.0467606306262E-01  2.2421020195371E+00
130  1.2900000000000E+00 -2.0018810384119E-01  2.2432577290940E+00
131  1.3000000000000E+00 -1.9430925181267E-01  2.2241703855635E+00
132  1.3100000000000E+00 -1.8711770938146E-01  2.1849426160020E+00
133  1.3200000000000E+00 -1.7870883405878E-01  2.1260366354582E+00
134  1.3300000000000E+00 -1.6919471943505E-01  2.0482764217424E+00
135  1.3400000000000E+00 -1.5870349553295E-01  1.9528441669786E+00
136  1.3500000000000E+00 -1.4737835524462E-01  1.8412709308245E+00
137  1.3600000000000E+00 -1.3537631677969E-01  1.7154214661708E+00
138  1.3700000000000E+00 -1.2286673456830E-01  1.5774732222199E+00
139  1.3800000000000E+00 -1.1002957277087E-01  1.4298895502833E+00
140  1.3900000000000E+00 -9.7053456337442E-02  1.2753871426026E+00
141  1.4000000000000E+00 -8.4133514335675E-02  1.1168977222702E+00
142  1.4100000000000E+00 -7.1469028911078E-02  9.5752397133915E-01
143  1.4200000000000E+00 -5.9260903253869E-02  8.0048966081483E-01
144  1.4300000000000E+00 -4.7708925745323E-02  6.4908349057740E-01
145  1.4400000000000E+00 -3.7009238004784E-02  5.0659991280569E-01
146  1.4500000000000E+00 -2.7352014486766E-02  3.7628134209064E-01
147  1.4600000000000E+00 -1.8916688299131E-02  2.6122706709870E-01
148  1.4700000000000E+00 -1.1867841877683E-02  1.6429840322578E-01
149  1.4800000000000E+00 -6.3520655144542E-03  8.8033866673635E-02