Ho    ONCVPSP-4.0.1  r_core=   2.00759   1.60898   1.90236   1.30503
67.0000     21.0000      241104    zatom,zion,pspd
8      11   3     4   600     0    pspcod,pspxc,lmax,lloc,mmax,r2well
5.99000000  4.00000000  0.00000000    rchrg fchrg qchrg
3     2     2     2     0    nproj
1     1           extension_switch
0                         1.2740330018687E+01  3.1560785686353E+00  5.9058368539853E-01
1  0.0000000000000E+00 -8.7525303671399E-10  1.8726193096175E-09 -2.9040723714679E-09
2  1.0000000000000E-02  5.9602885868365E-02 -2.9509744575660E-02  5.1138783079758E-02
3  2.0000000000000E-02  1.1901692957946E-01 -5.8690786645793E-02  1.0175560497916E-01
4  3.0000000000000E-02  1.7805496300832E-01 -8.7218074111997E-02  1.5133442445195E-01
5  4.0000000000000E-02  2.3653314662229E-01 -1.1477381319500E-01  1.9937097269170E-01
6  5.0000000000000E-02  2.9427258532127E-01 -1.4105099183728E-01  2.4537847172620E-01
7  6.0000000000000E-02  3.5110088675812E-01 -1.6575677753867E-01  2.8889315349998E-01
8  7.0000000000000E-02  4.0685364400396E-01 -1.8861574998989E-01  3.2947951665025E-01
9  8.0000000000000E-02  4.6137582529878E-01 -2.0937293074145E-01  3.6673526088535E-01
10  9.0000000000000E-02  5.1452305470356E-01 -2.2779657444906E-01  4.0029584244865E-01
11  1.0000000000000E-01  5.6616276873623E-01 -2.4368068894654E-01  4.2983859835744E-01
12  1.1000000000000E-01  6.1617523551426E-01 -2.5684725448357E-01  4.5508639189957E-01
13  1.2000000000000E-01  6.6445442452800E-01 -2.6714811589672E-01  4.7581073720393E-01
14  1.3000000000000E-01  7.1090871691109E-01 -2.7446652522008E-01  4.9183436651456E-01
15  1.4000000000000E-01  7.5546144794112E-01 -2.7871831624732E-01  5.0303321003539E-01
16  1.5000000000000E-01  7.9805127547112E-01 -2.7985269678441E-01  5.0933776480144E-01
17  1.6000000000000E-01  8.3863237004207E-01 -2.7785264873907E-01  5.1073383591024E-01
18  1.7000000000000E-01  8.7717442453238E-01 -2.7273493072662E-01  5.0726264053151E-01
19  1.8000000000000E-01  9.1366248334126E-01 -2.6454968248760E-01  4.9902027233926E-01
20  1.9000000000000E-01  9.4809659325249E-01 -2.5337963505235E-01  4.8615653128520E-01
21  2.0000000000000E-01  9.8049128026035E-01 -2.3933893520737E-01  4.6887313089268E-01
22  2.1000000000000E-01  1.0108748587352E+00 -2.2257159735896E-01  4.4742130240173E-01
23  2.2000000000000E-01  1.0392885813382E+00 -2.0324960030395E-01  4.2209882206869E-01
24  2.3000000000000E-01  1.0657856400377E+00 -1.8157065065312E-01  3.9324649463550E-01
25  2.4000000000000E-01  1.0904300304155E+00 -1.5775563865976E-01  3.6124413235758E-01
26  2.5000000000000E-01  1.1132952931484E+00 -1.3204581593946E-01  3.2650607494530E-01
27  2.6000000000000E-01  1.1344631480987E+00 -1.0469972797959E-01  2.8947630125792E-01
28  2.7000000000000E-01  1.1540220378220E+00 -7.5989937389267E-02  2.5062318853081E-01
29  2.8000000000000E-01  1.1720655984783E+00 -4.6199576492034E-02  2.1043397924890E-01
30  2.9000000000000E-01  1.1886910771166E+00 -1.5618770085481E-02  1.6940901946075E-01
31  3.0000000000000E-01  1.2039977150499E+00  1.5459029053586E-02  1.2805583529281E-01
32  3.1000000000000E-01  1.2180851175735E+00  4.6740748067405E-02  8.6883116651395E-02
33  3.2000000000000E-01  1.2310516305577E+00  7.7937400704636E-02  4.6394678543620E-02
34  3.3000000000000E-01  1.2429927444925E+00  1.0876774793859E-01  7.0834710917490E-03
35  3.4000000000000E-01  1.2539995463525E+00  1.3896186794068E-01 -3.0574290858626E-02
36  3.5000000000000E-01  1.2641572391981E+00  1.6826459164601E-01 -6.6124808633593E-02
37  3.6000000000000E-01  1.2735437487244E+00  1.9643876148746E-01 -9.9142123047430E-02
38  3.7000000000000E-01  1.2822284350341E+00  2.2326827272622E-01 -1.2923321468402E-01
39  3.8000000000000E-01  1.2902709267355E+00  2.4856085915763E-01 -1.5604271909984E-01
40  3.9000000000000E-01  1.2977200930779E+00  2.7215058779793E-01 -1.7925719907358E-01
41  4.0000000000000E-01  1.3046131682412E+00  2.9390003043097E-01 -1.9860892091063E-01
42  4.1000000000000E-01  1.3109750401110E+00  3.1370208357626E-01 -2.1387908735295E-01
43  4.2000000000000E-01  1.3168177139215E+00  3.3148141250128E-01 -2.2490048580466E-01
44  4.3000000000000E-01  1.3221399590466E+00  3.4719549928222E-01 -2.3155951727181E-01
45  4.4000000000000E-01  1.3269271450012E+00  3.6083527958233E-01 -2.3379757858055E-01
46  4.5000000000000E-01  1.3311512703980E+00  3.7242535770350E-01 -2.3161177798452E-01
47  4.6000000000000E-01  1.3347711862171E+00  3.8202379452168E-01 -2.2505497212520E-01
48  4.7000000000000E-01  1.3377330123244E+00  3.8972146807923E-01 -2.1423512037104E-01
49  4.8000000000000E-01  1.3399707437353E+00  3.9564101181363E-01 -1.9931396073936E-01
50  4.9000000000000E-01  1.3414070407085E+00  3.9993534059248E-01 -1.8050501980645E-01
51  5.0000000000000E-01  1.3419541943902E+00  4.0278577983119E-01 -1.5807097713011E-01
52  5.1000000000000E-01  1.3415152574454E+00  4.0439981792899E-01 -1.3232041265052E-01
53  5.2000000000000E-01  1.3399853269455E+00  4.0500850701016E-01 -1.0360397319999E-01
54  5.3000000000000E-01  1.3372529647466E+00  4.0486354143675E-01 -7.2310001544833E-02
55  5.4000000000000E-01  1.3332017387336E+00  4.0423404770849E-01 -3.8859678206161E-02
56  5.5000000000000E-01  1.3277118666359E+00  4.0340312312816E-01 -3.7017325743874E-03
57  5.6000000000000E-01  1.3206619426647E+00  4.0266416394111E-01  3.2693214533962E-02
58  5.7000000000000E-01  1.3119307260134E+00  4.0231702650123E-01  6.9838609813262E-02
59  5.8000000000000E-01  1.3013989693016E+00  4.0266406733775E-01  1.0723815670303E-01
60  5.9000000000000E-01  1.2889512643583E+00  4.0400610976305E-01  1.4439216042774E-01
61  6.0000000000000E-01  1.2744778823387E+00  4.0663838584303E-01  1.8080395194778E-01
62  6.1000000000000E-01  1.2578765850568E+00  4.1084650312552E-01  2.1598631245640E-01
63  6.2000000000000E-01  1.2390543846016E+00  4.1690248548563E-01  2.4946781953364E-01
64  6.3000000000000E-01  1.2179292287835E+00  4.2506093678439E-01  2.8079903652286E-01
65  6.4000000000000E-01  1.1944315907337E+00  4.3555537476243E-01  3.0955846811669E-01
66  6.5000000000000E-01  1.1685059420322E+00  4.4859478071165E-01  3.3535820752265E-01
67  6.6000000000000E-01  1.1401120900719E+00  4.6436040800677E-01  3.5784920390268E-01
68  6.7000000000000E-01  1.1092263619524E+00  4.8300288956410E-01  3.7672608300740E-01
69  6.8000000000000E-01  1.0758426190180E+00  5.0463968076989E-01  3.9173145900072E-01
70  6.9000000000000E-01  1.0399730881925E+00  5.2935287041738E-01  4.0265968135145E-01
71  7.0000000000000E-01  1.0016489984868E+00  5.5718738777401E-01  4.0935996726735E-01
72  7.1000000000000E-01  9.6092101343626E-01  5.8814962912464E-01  4.1173887738473E-01
73  7.2000000000000E-01  9.1785945273349E-01  6.2220652205263E-01  4.0976210023404E-01
74  7.3000000000000E-01  8.7255429891786E-01  6.5928504042197E-01  4.0345551924376E-01
75  7.4000000000000E-01  8.2511498764165E-01  6.9927217755205E-01  3.9290554466005E-01
76  7.5000000000000E-01  7.7566998270256E-01  7.4201537953270E-01  3.7825870160108E-01
77  7.6000000000000E-01  7.2436613968750E-01  7.8732343507127E-01  3.5972047444285E-01
78  7.7000000000000E-01  6.7136786467127E-01  8.3496781277394E-01  3.3755341672882E-01
79  7.8000000000000E-01  6.1685607691767E-01  8.8468443142105E-01  3.1207454468689E-01
80  7.9000000000000E-01  5.6102698690474E-01  9.3617584367173E-01  2.8365204111481E-01
81  8.0000000000000E-01  5.0409070321163E-01  9.8911380878616E-01  2.5270130476477E-01
82  8.1000000000000E-01  4.4626968381783E-01  1.0431422254735E+00  2.1968038827865E-01
83  8.2000000000000E-01  3.8779704916472E-01  1.0978803918871E+00  1.8508487515058E-01
84  8.3000000000000E-01  3.2891477587177E-01  1.1529265561832E+00  1.4944225298235E-01
85  8.4000000000000E-01  2.6987179127931E-01  1.2078617179472E+00  1.1330584641553E-01
86  8.5000000000000E-01  2.1092198997924E-01  1.2622536382371E+00  7.7248378472895E-02
87  8.6000000000000E-01  1.5232219418704E-01  1.3156610140059E+00  4.1855233579858E-02
88  8.7000000000000E-01  9.4330080196548E-02  1.3676377712654E+00  7.7174992220901E-03
89  8.8000000000000E-01  3.7202093238707E-02  1.4177374305552E+00 -2.4575134007386E-02
90  8.9000000000000E-01 -1.8808627157690E-02  1.4655174980731E+00 -5.4441532321077E-02
91  9.0000000000000E-01 -7.3454289722247E-02  1.5105438361926E+00 -8.1316255961873E-02
92  9.1000000000000E-01 -1.2649444113131E-01  1.5523949680183E+00 -1.0465659098133E-01
93  9.2000000000000E-01 -1.7769788310226E-01  1.5906662720767E+00 -1.2394939357418E-01
94  9.3000000000000E-01 -2.2684449845883E-01  1.6249740251565E+00 -1.3871766654960E-01
95  9.4000000000000E-01 -2.7372696923280E-01  1.6549592536595E+00 -1.4852678988500E-01
96  9.5000000000000E-01 -3.1815237154243E-01  1.6802913565299E+00 -1.5299033039859E-01
97  9.6000000000000E-01 -3.5994363379778E-01  1.7006714658354E+00 -1.5177535932121E-01
98  9.7000000000000E-01 -3.9894084669447E-01  1.7158355143058E+00 -1.4460721089500E-01
99  9.8000000000000E-01 -4.3500241542745E-01  1.7255569825279E+00 -1.3127362000245E-01
100  9.9000000000000E-01 -4.6800604653928E-01  1.7296493019604E+00 -1.1162818215632E-01
101  1.0000000000000E+00 -4.9784956377887E-01  1.7279678934123E+00 -8.5593084918204E-02
102  1.0100000000000E+00 -5.2445154924022E-01  1.7204118240467E+00 -5.3161065893717E-02
103  1.0200000000000E+00 -5.4775180783766E-01  1.7069250692562E+00 -1.4396558830694E-02
104  1.0300000000000E+00 -5.6771165482484E-01  1.6874973688764E+00  3.0564003980889E-02
105  1.0400000000000E+00 -5.8431402753889E-01  1.6621646700759E+00  8.1512757876794E-02
106  1.0500000000000E+00 -5.9756342383237E-01  1.6310091518988E+00  1.3817185818951E-01
107  1.0600000000000E+00 -6.0748567071841E-01  1.5941588287782E+00  2.0019582888356E-01
108  1.0700000000000E+00 -6.1412752759237E-01  1.5517867324266E+00  2.6717480953358E-01
109  1.0800000000000E+00 -6.1755612900341E-01  1.5041096733408E+00  3.3863869418895E-01
110  1.0900000000000E+00 -6.1785827234055E-01  1.4513865847909E+00  4.1406214646125E-01
111  1.1000000000000E+00 -6.1513955599286E-01  1.3939164536724E+00  4.9287046506490E-01
112  1.1100000000000E+00 -6.0952337357494E-01  1.3320358440857E+00  5.7444626278226E-01
113  1.1200000000000E+00 -6.0114976972635E-01  1.2661160211001E+00  6.5813690916261E-01
114  1.1300000000000E+00 -5.9017416285898E-01  1.1965596840392E+00  7.4326267273592E-01
115  1.1400000000000E+00 -5.7676594012406E-01  1.1237973209789E+00  8.2912548187344E-01
116  1.1500000000000E+00 -5.6110692989319E-01  1.0482831992461E+00  9.1501820395113E-01
117  1.1600000000000E+00 -5.4338975731650E-01  9.7049101079167E-01  1.0002343199161E+00
118  1.1700000000000E+00 -5.2381608917437E-01  8.9090919677501E-01  1.0840778447387E+00
119  1.1800000000000E+00 -5.0259477542793E-01  8.1003598282900E-01  1.1658733132749E+00
120  1.1900000000000E+00 -4.7993989679209E-01  7.2837416579379E-01  1.2449756145835E+00
121  1.2000000000000E+00 -4.5606873049645E-01  6.4642570460942E-01  1.3207794152115E+00
122  1.2100000000000E+00 -4.3119965039314E-01  5.6468618308615E-01  1.3927278623526E+00
123  1.2200000000000E+00 -4.0554998301077E-01  4.8363923112559E-01  1.4603201997551E+00
124  1.2300000000000E+00 -3.7933384823437E-01  4.0375101399452E-01  1.5231178625515E+00
125  1.2400000000000E+00 -3.5276002247254E-01  3.2546492762637E-01  1.5807485392645E+00
126  1.2500000000000E+00 -3.2602987366240E-01  2.4919667196514E-01  1.6329076001062E+00
127  1.2600000000000E+00 -2.9933543169052E-01  1.7532991510147E-01  1.6793561883005E+00
128  1.2700000000000E+00 -2.7285767530554E-01  1.0421280958906E-01  1.7199151533977E+00
129  1.2800000000000E+00 -2.4676513760007E-01  3.6155679269007E-02  1.7544538721660E+00
130  1.2900000000000E+00 -2.2121295755640E-01 -2.8569737473762E-02  1.7828728425172E+00
131  1.3000000000000E+00 -1.9634252989274E-01 -8.9729040550651E-02  1.8050789660359E+00
132  1.3100000000000E+00 -1.7228196640254E-01 -1.4712129889970E-01  1.8209511858548E+00
133  1.3200000000000E+00 -1.4914659989265E-01 -2.0057508663393E-01  1.8303323151355E+00
134  1.3300000000000E+00 -1.2703778766873E-01 -2.4995068361534E-01  1.8330942358989E+00
135  1.3400000000000E+00 -1.0604220280838E-01 -2.9514192859925E-01  1.8291677682792E+00
136  1.3500000000000E+00 -8.6231894009658E-02 -3.3607601220694E-01  1.8185418438472E+00
137  1.3600000000000E+00 -6.7664470996414E-02 -3.7271299512200E-01  1.8012628053039E+00
138  1.3700000000000E+00 -5.0383425980839E-02 -4.0504501455577E-01  1.7774329818383E+00
139  1.3800000000000E+00 -3.4418578033292E-02 -4.3309520895286E-01  1.7472087635563E+00
140  1.3900000000000E+00 -1.9786630325461E-02 -4.5691638163867E-01  1.7107981961351E+00
141  1.4000000000000E+00 -6.4918290861907E-03 -4.7658942678952E-01  1.6684581302784E+00
142  1.4100000000000E+00  5.4732876936900E-03 -4.9222154308039E-01  1.6204909648510E+00
143  1.4200000000000E+00  1.6127064359897E-02 -5.0394426186122E-01  1.5672410255717E+00
144  1.4300000000000E+00  2.5497837488238E-02 -5.1191131794125E-01  1.5090906243573E+00
145  1.4400000000000E+00  3.3622994793786E-02 -5.1629639182146E-01  1.4464558464764E+00
146  1.4500000000000E+00  4.0547996330025E-02 -5.1729075261217E-01  1.3797821142892E+00
147  1.4600000000000E+00  4.6325371140907E-02 -5.1510083093490E-01  1.3095395776103E+00
148  1.4700000000000E+00  5.1013702229318E-02 -5.0994575074039E-01  1.2362183810088E+00
149  1.4800000000000E+00  5.4676612254331E-02 -5.0205484828895E-01  1.1603238582700E+00
150  1.4900000000000E+00  5.7381761779620E-02 -4.9166520555439E-01  1.0823717036924E+00
151  1.5000000000000E+00  5.9199871154205E-02 -4.7901922397323E-01  1.0028831685753E+00
152  1.5100000000000E+00  6.0203776249182E-02 -4.6436226285643E-01  9.2238032947460E-01
153  1.5200000000000E+00  6.0467527332467E-02 -4.4794036500015E-01  8.4138147289334E-01
154  1.5300000000000E+00  6.0065539298769E-02 -4.2999808991894E-01  7.6039663816305E-01
155  1.5400000000000E+00  5.9071800371234E-02 -4.1077647294386E-01  6.7992335748597E-01
156  1.5500000000000E+00  5.7559145227450E-02 -3.9051112606612E-01  6.0044262879968E-01
157  1.5600000000000E+00  5.5598597305640E-02 -3.6943049393975E-01  5.2241515351590E-01
158  1.5700000000000E+00  5.3258783825898E-02 -3.4775427589456E-01  4.4627786727331E-01
159  1.5800000000000E+00  5.0605425903317E-02 -3.2569202239096E-01  3.7244078833616E-01
160  1.5900000000000E+00  4.7700904803444E-02 -3.0344191138235E-01  3.0128420273796E-01
161  1.6000000000000E+00  4.4603904636685E-02 -2.8118970867641E-01  2.3315620495894E-01
162  1.6100000000000E+00  4.1369129972814E-02 -2.5910791185824E-01  1.6837060161536E-01
163  1.6200000000000E+00  3.8047096747499E-02 -2.3735507765293E-01  1.0720519043996E-01
164  1.6300000000000E+00  3.4683993143857E-02 -2.1607532825523E-01  4.9900415448572E-02
165  1.6400000000000E+00  3.1321606676358E-02 -1.9539803125894E-01 -3.3416009051228E-03
166  1.6500000000000E+00  2.7997312858885E-02 -1.7543764568517E-01 -5.2357652536545E-02
167  1.6600000000000E+00  2.4744120196566E-02 -1.5629372494906E-01 -9.7023679036754E-02
168  1.6700000000000E+00  2.1590765725860E-02 -1.3805106619520E-01 -1.3725464025659E-01
169  1.6800000000000E+00  1.8561854954289E-02 -1.2077999431046E-01 -1.7300404975275E-01
170  1.6900000000000E+00  1.5678039729968E-02 -1.0453676784734E-01 -2.0426318374746E-01
171  1.7000000000000E+00  1.2956227426200E-02 -8.9364093407137E-02 -2.3105998454354E-01
172  1.7100000000000E+00  1.0409814801487E-02 -7.5291734589420E-02 -2.5345767930731E-01
173  1.7200000000000E+00  8.0489399226832E-03 -6.2337201235447E-02 -2.7155313724267E-01
174  1.7300000000000E+00  5.8807457571728E-03 -5.0506504764314E-02 -2.8547498931941E-01
175  1.7400000000000E+00  3.9096492729755E-03 -3.9794965452099E-02 -2.9538153617457E-01
176  1.7500000000000E+00  2.1376102981867E-03 -3.0188057990549E-02 -3.0145847029121E-01
177  1.7600000000000E+00  5.6439480425328E-04 -2.1662282112691E-02 -3.0391643932240E-01
178  1.7700000000000E+00 -8.1217220732172E-04 -1.4186045772904E-02 -3.0298847764537E-01
179  1.7800000000000E+00 -1.9959684185948E-03 -7.7205493203158E-03 -2.9892733290277E-01
180  1.7900000000000E+00 -2.9923541374793E-03 -2.2206599534534E-03 -2.9200271424889E-01
181  1.8000000000000E+00 -3.8079734335541E-03  2.3642331755996E-03 -2.8249848841889E-01
182  1.8100000000000E+00 -4.4505787285353E-03  6.0893916245678E-03 -2.7070984874725E-01
183  1.8200000000000E+00 -4.9288804825223E-03  9.0139354842522E-03 -2.5694048168127E-01
184  1.8300000000000E+00 -5.2524227194278E-03  1.1200091984887E-02 -2.4149975288995E-01
185  1.8400000000000E+00 -5.4314856981394E-03  1.2712492369646E-02 -2.2469994092217E-01
186  1.8500000000000E+00 -5.4770122410770E-03  1.3617512845000E-02 -2.0685352066372E-01
187  1.8600000000000E+00 -5.4005617149881E-03  1.3982674569850E-02 -1.8827054444544E-01
188  1.8700000000000E+00 -5.2142811743625E-03  1.3876085549093E-02 -1.6925610912554E-01
189  1.8800000000000E+00 -4.9309372592599E-03  1.3366008789520E-02 -1.5010801527101E-01
190  1.8900000000000E+00 -4.5638747493859E-03  1.2520311238317E-02 -1.3111435878119E-01
191  1.9000000000000E+00 -4.1269782803293E-03  1.1405939015572E-02 -1.1255122572057E-01
192  1.9100000000000E+00 -3.6375345438196E-03  1.0093936969511E-02 -9.4687290117225E-02
193  1.9200000000000E+00 -3.1312026005317E-03  8.6876323726110E-03 -7.7817019434365E-02
194  1.9300000000000E+00 -2.6279424969897E-03  7.2573433796117E-03 -6.2179105130791E-02
195  1.9400000000000E+00 -2.1327712608243E-03  5.8414127982293E-03 -4.7956474906861E-02
196  1.9500000000000E+00 -1.6556872896064E-03  4.4838412520558E-03 -3.5321434605878E-02
197  1.9600000000000E+00 -1.2085353489080E-03  3.2280811776940E-03 -2.4427125377204E-02
198  1.9700000000000E+00 -8.0553518354089E-04  2.1178375918125E-03 -1.5407738303599E-02
199  1.9800000000000E+00 -4.6356244100904E-04  1.1975527762412E-03 -8.3811293216889E-03
200  1.9900000000000E+00 -1.9953132669148E-04  5.0597294113057E-04 -3.4094164597520E-03
201  2.0000000000000E+00 -4.3872944734345E-05  1.0886258693674E-04 -7.0246919739537E-04
202  2.0100000000000E+00  3.8433171753740E-06 -9.5342212961282E-06  6.2729433889841E-05
203  2.0200000000000E+00 -1.8559795255666E-07  4.6120006022604E-07 -3.0057559493119E-06
204  2.03 -0.  0. -0.
205  2.04  0. -0.  0.
206  2.05  0. -0.  0.
207  2.06  0.  0.  0.
208  2.07  0.  0.  0.
209  2.08  0.  0.  0.
210  2.09  0.  0.  0.
211  2.10  0.  0.  0.
212  2.11  0.  0.  0.
213  2.12  0.  0.  0.
214  2.13  0.  0.  0.
215  2.14  0.  0.  0.
216  2.15  0.  0.  0.
217  2.16  0.  0.  0.
218  2.17  0.  0.  0.
219  2.18  0.  0.  0.
220  2.19  0.  0.  0.
221  2.20  0.  0.  0.
222  2.21  0.  0.  0.
223  2.22  0.  0.  0.
224  2.23  0.  0.  0.
225  2.24  0.  0.  0.
226  2.25  0.  0.  0.
227  2.26  0.  0.  0.
228  2.27  0.  0.  0.
229  2.28  0.  0.  0.
230  2.29  0.  0.  0.
231  2.30  0.  0.  0.
232  2.31  0.  0.  0.
233  2.32  0.  0.  0.
234  2.33  0.  0.  0.
235  2.34  0.  0.  0.
236  2.35  0.  0.  0.
237  2.36  0.  0.  0.
238  2.37  0.  0.  0.
239  2.38  0.  0.  0.
240  2.39  0.  0.  0.
241  2.40  0.  0.  0.
242  2.41  0.  0.  0.
243  2.42  0.  0.  0.
244  2.43  0.  0.  0.
245  2.44  0.  0.  0.
246  2.45  0.  0.  0.
247  2.46  0.  0.  0.
248  2.47  0.  0.  0.
249  2.48  0.  0.  0.
250  2.49  0.  0.  0.
251  2.50  0.  0.  0.
252  2.51  0.  0.  0.
253  2.52  0.  0.  0.
254  2.53  0.  0.  0.
255  2.54  0.  0.  0.
256  2.55  0.  0.  0.
257  2.56  0.  0.  0.
258  2.57  0.  0.  0.
259  2.58  0.  0.  0.
260  2.59  0.  0.  0.
261  2.60  0.  0.  0.
262  2.61  0.  0.  0.
263  2.62  0.  0.  0.
264  2.63  0.  0.  0.
265  2.64  0.  0.  0.
266  2.65  0.  0.  0.
267  2.66  0.  0.  0.
268  2.67  0.  0.  0.
269  2.68  0.  0.  0.
270  2.69  0.  0.  0.
271  2.70  0.  0.  0.
272  2.71  0.  0.  0.
273  2.72  0.  0.  0.
274  2.73  0.  0.  0.
275  2.74  0.  0.  0.
276  2.75  0.  0.  0.
277  2.76  0.  0.  0.
278  2.77  0.  0.  0.
279  2.78  0.  0.  0.
280  2.79  0.  0.  0.
281  2.80  0.  0.  0.
282  2.81  0.  0.  0.
283  2.82  0.  0.  0.
284  2.83  0.  0.  0.
285  2.84  0.  0.  0.
286  2.85  0.  0.  0.
287  2.86  0.  0.  0.
288  2.87  0.  0.  0.
289  2.88  0.  0.  0.
290  2.89  0.  0.  0.
291  2.90  0.  0.  0.
292  2.91  0.  0.  0.
293  2.92  0.  0.  0.
294  2.93  0.  0.  0.
295  2.94  0.  0.  0.
296  2.95  0.  0.  0.
297  2.96  0.  0.  0.
298  2.97  0.  0.  0.
299  2.98  0.  0.  0.
300  2.99  0.  0.  0.
301  3.00  0.  0.  0.
302  3.01  0.  0.  0.
303  3.02  0.  0.  0.
304  3.03  0.  0.  0.
305  3.04  0.  0.  0.
306  3.05  0.  0.  0.
307  3.06  0.  0.  0.
308  3.07  0.  0.  0.
309  3.08  0.  0.  0.
310  3.09  0.  0.  0.
311  3.10  0.  0.  0.
312  3.11  0.  0.  0.
313  3.12  0.  0.  0.
314  3.13  0.  0.  0.
315  3.14  0.  0.  0.
316  3.15  0.  0.  0.
317  3.16  0.  0.  0.
318  3.17  0.  0.  0.
319  3.18  0.  0.  0.
320  3.19  0.  0.  0.
321  3.20  0.  0.  0.
322  3.21  0.  0.  0.
323  3.22  0.  0.  0.
324  3.23  0.  0.  0.
325  3.24  0.  0.  0.
326  3.25  0.  0.  0.
327  3.26  0.  0.  0.
328  3.27  0.  0.  0.
329  3.28  0.  0.  0.
330  3.29  0.  0.  0.
331  3.30  0.  0.  0.
332  3.31  0.  0.  0.
333  3.32  0.  0.  0.
334  3.33  0.  0.  0.
335  3.34  0.  0.  0.
336  3.35  0.  0.  0.
337  3.36  0.  0.  0.
338  3.37  0.  0.  0.
339  3.38  0.  0.  0.
340  3.39  0.  0.  0.
341  3.40  0.  0.  0.
342  3.41  0.  0.  0.
343  3.42  0.  0.  0.
344  3.43  0.  0.  0.
345  3.44  0.  0.  0.
346  3.45  0.  0.  0.
347  3.46  0.  0.  0.
348  3.47  0.  0.  0.
349  3.48  0.  0.  0.
350  3.49  0.  0.  0.
351  3.50  0.  0.  0.
352  3.51  0.  0.  0.
353  3.52  0.  0.  0.
354  3.53  0.  0.  0.
355  3.54  0.  0.  0.
356  3.55  0.  0.  0.
357  3.56  0.  0.  0.
358  3.57  0.  0.  0.
359  3.58  0.  0.  0.
360  3.59  0.  0.  0.
361  3.60  0.  0.  0.
362  3.61  0.  0.  0.
363  3.62  0.  0.  0.
364  3.63  0.  0.  0.
365  3.64  0.  0.  0.
366  3.65  0.  0.  0.
367  3.66  0.  0.  0.
368  3.67  0.  0.  0.
369  3.68  0.  0.  0.
370  3.69  0.  0.  0.
371  3.70  0.  0.  0.
372  3.71  0.  0.  0.
373  3.72  0.  0.  0.
374  3.73  0.  0.  0.
375  3.74  0.  0.  0.
376  3.75  0.  0.  0.
377  3.76  0.  0.  0.
378  3.77  0.  0.  0.
379  3.78  0.  0.  0.
380  3.79  0.  0.  0.
381  3.80  0.  0.  0.
382  3.81  0.  0.  0.
383  3.82  0.  0.  0.
384  3.83  0.  0.  0.
385  3.84  0.  0.  0.
386  3.85  0.  0.  0.
387  3.86  0.  0.  0.
388  3.87  0.  0.  0.
389  3.88  0.  0.  0.
390  3.89  0.  0.  0.
391  3.90  0.  0.  0.
392  3.91  0.  0.  0.
393  3.92  0.  0.  0.
394  3.93  0.  0.  0.
395  3.94  0.  0.  0.
396  3.95  0.  0.  0.
397  3.96  0.  0.  0.
398  3.97  0.  0.  0.
399  3.98  0.  0.  0.
400  3.99  0.  0.  0.
401  4.00  0.  0.  0.
402  4.01  0.  0.  0.
403  4.02  0.  0.  0.
404  4.03  0.  0.  0.
405  4.04  0.  0.  0.
406  4.05  0.  0.  0.
407  4.06  0.  0.  0.
408  4.07  0.  0.  0.
409  4.08  0.  0.  0.
410  4.09  0.  0.  0.
411  4.10  0.  0.  0.
412  4.11  0.  0.  0.
413  4.12  0.  0.  0.
414  4.13  0.  0.  0.
415  4.14  0.  0.  0.
416  4.15  0.  0.  0.
417  4.16  0.  0.  0.
418  4.17  0.  0.  0.
419  4.18  0.  0.  0.
420  4.19  0.  0.  0.
421  4.20  0.  0.  0.
422  4.21  0.  0.  0.
423  4.22  0.  0.  0.
424  4.23  0.  0.  0.
425  4.24  0.  0.  0.
426  4.25  0.  0.  0.
427  4.26  0.  0.  0.
428  4.27  0.  0.  0.
429  4.28  0.  0.  0.
430  4.29  0.  0.  0.
431  4.30  0.  0.  0.
432  4.31  0.  0.  0.
433  4.32  0.  0.  0.
434  4.33  0.  0.  0.
435  4.34  0.  0.  0.
436  4.35  0.  0.  0.
437  4.36  0.  0.  0.
438  4.37  0.  0.  0.
439  4.38  0.  0.  0.
440  4.39  0.  0.  0.
441  4.40  0.  0.  0.
442  4.41  0.  0.  0.
443  4.42  0.  0.  0.
444  4.43  0.  0.  0.
445  4.44  0.  0.  0.
446  4.45  0.  0.  0.
447  4.46  0.  0.  0.
448  4.47  0.  0.  0.
449  4.48  0.  0.  0.
450  4.49  0.  0.  0.
451  4.50  0.  0.  0.
452  4.51  0.  0.  0.
453  4.52  0.  0.  0.
454  4.53  0.  0.  0.
455  4.54  0.  0.  0.
456  4.55  0.  0.  0.
457  4.56  0.  0.  0.
458  4.57  0.  0.  0.
459  4.58  0.  0.  0.
460  4.59  0.  0.  0.
461  4.60  0.  0.  0.
462  4.61  0.  0.  0.
463  4.62  0.  0.  0.
464  4.63  0.  0.  0.
465  4.64  0.  0.  0.
466  4.65  0.  0.  0.
467  4.66  0.  0.  0.
468  4.67  0.  0.  0.
469  4.68  0.  0.  0.
470  4.69  0.  0.  0.
471  4.70  0.  0.  0.
472  4.71  0.  0.  0.
473  4.72  0.  0.  0.
474  4.73  0.  0.  0.
475  4.74  0.  0.  0.
476  4.75  0.  0.  0.
477  4.76  0.  0.  0.
478  4.77  0.  0.  0.
479  4.78  0.  0.  0.
480  4.79  0.  0.  0.
481  4.80  0.  0.  0.
482  4.81  0.  0.  0.
483  4.82  0.  0.  0.
484  4.83  0.  0.  0.
485  4.84  0.  0.  0.
486  4.85  0.  0.  0.
487  4.86  0.  0.  0.
488  4.87  0.  0.  0.
489  4.88  0.  0.  0.
490  4.89  0.  0.  0.
491  4.90  0.  0.  0.
492  4.91  0.  0.  0.
493  4.92  0.  0.  0.
494  4.93  0.  0.  0.
495  4.94  0.  0.  0.
496  4.95  0.  0.  0.
497  4.96  0.  0.  0.
498  4.97  0.  0.  0.
499  4.98  0.  0.  0.
500  4.99  0.  0.  0.
501  5.00  0.  0.  0.
502  5.01  0.  0.  0.
503  5.02  0.  0.  0.
504  5.03  0.  0.  0.
505  5.04  0.  0.  0.
506  5.05  0.  0.  0.
507  5.06  0.  0.  0.
508  5.07  0.  0.  0.
509  5.08  0.  0.  0.
510  5.09  0.  0.  0.
511  5.10  0.  0.  0.
512  5.11  0.  0.  0.
513  5.12  0.  0.  0.
514  5.13  0.  0.  0.
515  5.14  0.  0.  0.
516  5.15  0.  0.  0.
517  5.16  0.  0.  0.
518  5.17  0.  0.  0.
519  5.18  0.  0.  0.
520  5.19  0.  0.  0.
521  5.20  0.  0.  0.
522  5.21  0.  0.  0.
523  5.22  0.  0.  0.
524  5.23  0.  0.  0.
525  5.24  0.  0.  0.
526  5.25  0.  0.  0.
527  5.26  0.  0.  0.
528  5.27  0.  0.  0.
529  5.28  0.  0.  0.
530  5.29  0.  0.  0.
531  5.30  0.  0.  0.
532  5.31  0.  0.  0.
533  5.32  0.  0.  0.
534  5.33  0.  0.  0.
535  5.34  0.  0.  0.
536  5.35  0.  0.  0.
537  5.36  0.  0.  0.
538  5.37  0.  0.  0.
539  5.38  0.  0.  0.
540  5.39  0.  0.  0.
541  5.40  0.  0.  0.
542  5.41  0.  0.  0.
543  5.42  0.  0.  0.
544  5.43  0.  0.  0.
545  5.44  0.  0.  0.
546  5.45  0.  0.  0.
547  5.46  0.  0.  0.
548  5.47  0.  0.  0.
549  5.48  0.  0.  0.
550  5.49  0.  0.  0.
551  5.50  0.  0.  0.
552  5.51  0.  0.  0.
553  5.52  0.  0.  0.
554  5.53  0.  0.  0.
555  5.54  0.  0.  0.
556  5.55  0.  0.  0.
557  5.56  0.  0.  0.
558  5.57  0.  0.  0.
559  5.58  0.  0.  0.
560  5.59  0.  0.  0.
561  5.60  0.  0.  0.
562  5.61  0.  0.  0.
563  5.62  0.  0.  0.
564  5.63  0.  0.  0.
565  5.64  0.  0.  0.
566  5.65  0.  0.  0.
567  5.66  0.  0.  0.
568  5.67  0.  0.  0.
569  5.68  0.  0.  0.
570  5.69  0.  0.  0.
571  5.70  0.  0.  0.
572  5.71  0.  0.  0.
573  5.72  0.  0.  0.
574  5.73  0.  0.  0.
575  5.74  0.  0.  0.
576  5.75  0.  0.  0.
577  5.76  0.  0.  0.
578  5.77  0.  0.  0.
579  5.78  0.  0.  0.
580  5.79  0.  0.  0.
581  5.80  0.  0.  0.
582  5.81  0.  0.  0.
583  5.82  0.  0.  0.
584  5.83  0.  0.  0.
585  5.84  0.  0.  0.
586  5.85  0.  0.  0.
587  5.86  0.  0.  0.
588  5.87  0.  0.  0.
589  5.88  0.  0.  0.
590  5.89  0.  0.  0.
591  5.90  0.  0.  0.
592  5.91  0.  0.  0.
593  5.92  0.  0.  0.
594  5.93  0.  0.  0.
595  5.94  0.  0.  0.
596  5.95  0.  0.  0.
597  5.96  0.  0.  0.
598  5.97  0.  0.  0.
599  5.98  0.  0.  0.
600  5.99  0.  0.  0.
1                         7.4826805471801E+00  7.8549515319375E-01
1  0.0000000000000E+00  9.7233762708093E-10 -4.4565789600326E-09
2  1.0000000000000E-02  1.0947102158656E-03 -1.0164766130920E-03
3  2.0000000000000E-02  4.3745155507177E-03 -4.0544662732594E-03
4  3.0000000000000E-02  9.8264772730203E-03 -9.0798097881018E-03
5  4.0000000000000E-02  1.7429154292317E-02 -1.6036110438573E-02
6  5.0000000000000E-02  2.7152786400938E-02 -2.4845528003475E-02
7  6.0000000000000E-02  3.8959546943443E-02 -3.5409872784243E-02
8  7.0000000000000E-02  5.2803861123261E-02 -4.7611982359031E-02
9  8.0000000000000E-02  6.8632785183651E-02 -6.1317359338513E-02
10  9.0000000000000E-02  8.6386440808169E-02 -7.6376044287080E-02
11  1.0000000000000E-01  1.0599849828937E-01 -9.2624694278345E-02
12  1.1000000000000E-01  1.2739670132714E-01 -1.0988883433245E-01
13  1.2000000000000E-01  1.5050342575125E-01 -1.2798524628676E-01
14  1.3000000000000E-01  1.7523626402658E-01 -1.4672445752432E-01
15  1.4000000000000E-01  2.0150862710082E-01 -1.6591329046122E-01
16  1.5000000000000E-01  2.2923035499895E-01 -1.8535743279895E-01
17  1.6000000000000E-01  2.5830832755913E-01 -2.0486398829666E-01
18  1.7000000000000E-01  2.8864706684064E-01 -2.2424396821560E-01
19  1.8000000000000E-01  3.2014932301460E-01 -2.4331468462752E-01
20  1.9000000000000E-01  3.5271663596711E-01 -2.6190200844601E-01
21  2.0000000000000E-01  3.8624986539566E-01 -2.7984245730672E-01
22  2.1000000000000E-01  4.2064968285336E-01 -2.9698508125573E-01
23  2.2000000000000E-01  4.5581701998053E-01 -3.1319311755745E-01
24  2.3000000000000E-01  4.9165346804624E-01 -3.2834538975337E-01
25  2.4000000000000E-01  5.2806162488751E-01 -3.4233743032864E-01
26  2.5000000000000E-01  5.6494538636579E-01 -3.5508231090615E-01
27  2.6000000000000E-01  6.0221018053958E-01 -3.6651116871640E-01
28  2.7000000000000E-01  6.3976314386135E-01 -3.7657342310566E-01
29  2.8000000000000E-01  6.7751323982552E-01 -3.8523668096491E-01
30  2.9000000000000E-01  7.1537132160351E-01 -3.9248633510426E-01
31  3.0000000000000E-01  7.5325014128155E-01 -3.9832486467794E-01
32  3.1000000000000E-01  7.9106430934776E-01 -4.0277085170045E-01
33  3.2000000000000E-01  8.2873020903896E-01 -4.0585773240408E-01
34  3.3000000000000E-01  8.6616587103618E-01 -4.0763230659354E-01
35  3.4000000000000E-01  9.0329081477607E-01 -4.0815303218244E-01
36  3.5000000000000E-01  9.4002586330746E-01 -4.0748813568070E-01
37  3.6000000000000E-01  9.7629293915656E-01 -4.0571357248229E-01
38  3.7000000000000E-01  1.0120148490596E+00 -4.0291087332580E-01
39  3.8000000000000E-01  1.0471150656697E+00 -3.9916491522401E-01
40  3.9000000000000E-01  1.0815175144419E+00 -3.9456165644783E-01
41  4.0000000000000E-01  1.1151463738369E+00 -3.8918587578291E-01
42  4.1000000000000E-01  1.1479258967737E+00 -3.8311895624015E-01
43  4.2000000000000E-01  1.1797802608844E+00 -3.7643675269322E-01
44  4.3000000000000E-01  1.2106334546124E+00 -3.6920758154647E-01
45  4.4000000000000E-01  1.2404092055320E+00 -3.6149036852656E-01
46  4.5000000000000E-01  1.2690309564793E+00 -3.5333298807108E-01