Ho    ONCVPSP-4.0.1  r_core=   2.00759   1.60898   1.90236   1.30503
67.0000     21.0000      241015    zatom,zion,pspd
8      11   3     4   600     0    pspcod,pspxc,lmax,lloc,mmax,r2well
5.99000000  4.00000000  0.00000000    rchrg fchrg qchrg
3     2     2     2     0    nproj
1     1           extension_switch
0                         1.2816459238395E+01  3.2105349290756E+00  6.0599789054712E-01
1  0.0000000000000E+00 -8.8806545450737E-10  1.8805445256564E-09 -2.8911788518826E-09
2  1.0000000000000E-02  6.0050889393522E-02 -2.9584987716182E-02  5.1144284353682E-02
3  2.0000000000000E-02  1.1990981395090E-01 -5.8839435435407E-02  1.0176817557005E-01
4  3.0000000000000E-02  1.7938651077384E-01 -8.7436471363180E-02  1.5135717684391E-01
5  4.0000000000000E-02  2.3829410106716E-01 -1.1505651742446E-01  1.9940851689192E-01
6  5.0000000000000E-02  2.9645073298725E-01 -1.4139082989290E-01  2.4543684560028E-01
7  6.0000000000000E-02  3.5368116608310E-01 -1.6614491389039E-01  2.8897973120573E-01
8  7.0000000000000E-02  4.0981827891424E-01 -1.8904177194365E-01  3.2960289628186E-01
9  8.0000000000000E-02  4.6470448231786E-01 -2.0982494866525E-01  3.6690513269335E-01
10  9.0000000000000E-02  5.1819302188981E-01 -2.2826133593989E-01  4.0052283923949E-01
11  1.0000000000000E-01  5.7014915452799E-01 -2.4414370571785E-01  4.3013412989529E-01
12  1.1000000000000E-01  6.2045118534926E-01 -2.5729294061769E-01  4.5546246533221E-01
13  1.2000000000000E-01  6.6899135291493E-01 -2.6755993598583E-01  4.7627976570906E-01
14  1.3000000000000E-01  7.1567655246914E-01 -2.7482715081492E-01  4.9240896851418E-01
15  1.4000000000000E-01  7.6042888878765E-01 -2.7900978894544E-01  5.0372600144774E-01
16  1.5000000000000E-01  8.0318605223218E-01 -2.8005659622169E-01  5.1016114689634E-01
17  1.6000000000000E-01  8.4390151368532E-01 -2.7795026369878E-01  5.1169978139830E-01
18  1.7000000000000E-01  8.8254453617817E-01 -2.7270743155211E-01  5.0838248055522E-01
19  1.8000000000000E-01  9.1910000319634E-01 -2.6437829297559E-01  5.0030448703762E-01
20  1.9000000000000E-01  9.5356806583140E-01 -2.5304580201755E-01  4.8761454658097E-01
21  2.0000000000000E-01  9.8596361311331E-01 -2.3882449394239E-01  4.7051312409553E-01
22  2.1000000000000E-01  1.0163155719863E+00 -2.2185893126871E-01  4.4925001913779E-01
23  2.2000000000000E-01  1.0446660454535E+00 -2.0232179306841E-01  4.2412140693476E-01
24  2.3000000000000E-01  1.0710692993908E+00 -1.8041162936784E-01  3.9546633783753E-01
25  2.4000000000000E-01  1.0955906103907E+00 -1.5635030651750E-01  3.6366273442983E-01
26  2.5000000000000E-01  1.1183049887237E+00 -1.3038017314807E-01  3.2912293145836E-01
27  2.6000000000000E-01  1.1392957920786E+00 -1.0276097975919E-01  2.9228880921558E-01
28  2.7000000000000E-01  1.1586532471338E+00 -7.3766588056040E-02  2.5362657592860E-01
29  2.8000000000000E-01  1.1764728972165E+00 -4.3681508810812E-02  2.1362125902198E-01
30  2.9000000000000E-01  1.1928539952999E+00 -1.2797309262509E-02  1.7277096879285E-01
31  3.0000000000000E-01  1.2078978623539E+00  1.8591067171949E-02  1.3158100098639E-01
32  3.1000000000000E-01  1.2217062316049E+00  5.0189024819406E-02  9.0557846984599E-02
33  3.2000000000000E-01  1.2343795995501E+00  8.1706038485316E-02  5.0203181754764E-02
34  3.3000000000000E-01  1.2460156046148E+00  1.1285932993314E-01  1.1007900349311E-02
35  3.4000000000000E-01  1.2567074541352E+00  1.4337745332644E-01 -2.6553726428564E-02
36  3.5000000000000E-01  1.2665424198869E+00  1.7300374566682E-01 -6.2029707571443E-02
37  3.6000000000000E-01  1.2756004216708E+00  2.0149959960614E-01 -9.4995730818553E-02
38  3.7000000000000E-01  1.2839527175144E+00  2.2864751787424E-01 -1.2506023982146E-01
39  3.8000000000000E-01  1.2916607178592E+00  2.5425391092515E-01 -1.5186912773619E-01
40  3.9000000000000E-01  1.2987749396943E+00  2.7815160224581E-01 -1.7510998960649E-01
41  4.0000000000000E-01  1.3053341149762E+00  3.0020200906173E-01 -1.9451588077096E-01
42  4.1000000000000E-01  1.3113644658671E+00  3.2029696987922E-01 -2.0986853405496E-01
43  4.2000000000000E-01  1.3168791573395E+00  3.3836019437847E-01 -2.2100099463678E-01
44  4.3000000000000E-01  1.3218779355688E+00  3.5434831558704E-01 -2.2779963815935E-01
45  4.4000000000000E-01  1.3263469582775E+00  3.6825152894328E-01 -2.3020554478625E-01
46  4.5000000000000E-01  1.3302588208466E+00  3.8009380777926E-01 -2.2821520943537E-01
47  4.6000000000000E-01  1.3335727795844E+00  3.8993268982864E-01 -2.2188057624052E-01
48  4.7000000000000E-01  1.3362351710824E+00  3.9785863456098E-01 -2.1130839333685E-01
49  4.8000000000000E-01  1.3381800241145E+00  4.0399395637282E-01 -1.9665889220903E-01
50  4.9000000000000E-01  1.3393298580849E+00  4.0849134388734E-01 -1.7814380402050E-01
51  5.0000000000000E-01  1.3395966596277E+00  4.1153198074666E-01 -1.5602373343228E-01
52  5.1000000000000E-01  1.3388830266457E+00  4.1332328826713E-01 -1.3060491833450E-01
53  5.2000000000000E-01  1.3370834668695E+00  4.1409631510198E-01 -1.0223541155054E-01
54  5.3000000000000E-01  1.3340858359585E+00  4.1410280356058E-01 -7.1300727842540E-02
55  5.4000000000000E-01  1.3297728982696E+00  4.1361196640109E-01 -3.8219006341826E-02
56  5.5000000000000E-01  1.3240239917285E+00  4.1290701169698E-01 -3.4357447750020E-03
57  5.6000000000000E-01  1.3167167767599E+00  4.1228145672181E-01  3.2581832535640E-02
58  5.7000000000000E-01  1.3077290480039E+00  4.1203527465097E-01  6.9350706029149E-02
59  5.8000000000000E-01  1.2969405865691E+00  4.1247092021616E-01  1.0637822062979E-01
60  5.9000000000000E-01  1.2842350298811E+00  4.1388928221135E-01  1.4316839958543E-01
61  6.0000000000000E-01  1.2695017357743E+00  4.1658561193760E-01  1.7922833577280E-01
62  6.1000000000000E-01  1.2526376173619E+00  4.2084547724392E-01  2.1407458237091E-01
63  6.2000000000000E-01  1.2335489254082E+00  4.2694079177708E-01  2.4723946429586E-01
64  6.3000000000000E-01  1.2121529554158E+00  4.3512596838249E-01  2.7827723225380E-01
65  6.4000000000000E-01  1.1883796574238E+00  4.4563424430668E-01  3.0676998270407E-01
66  6.5000000000000E-01  1.1621731275895E+00  4.5867422395778E-01  3.3233326941243E-01
67  6.6000000000000E-01  1.1334929619746E+00  4.7442668249437E-01  3.5462133560817E-01
68  6.7000000000000E-01  1.1023154545703E+00  4.9304167047695E-01  3.7333189998428E-01
69  6.8000000000000E-01  1.0686346234461E+00  5.1463595625822E-01  3.8821043486288E-01
70  6.9000000000000E-01  1.0324630509767E+00  5.3929083875765E-01  3.9905388072268E-01
71  7.0000000000000E-01  9.9383252636218E-01  5.6705035881387E-01  4.0571374788228E-01
72  7.1000000000000E-01  9.5279448107340E-01  5.9791993249349E-01  4.0809856337013E-01
73  7.2000000000000E-01  9.0942021040516E-01  6.3186542462038E-01  4.0617562880236E-01
74  7.3000000000000E-01  8.6380087695657E-01  6.6881267544480E-01  3.9997206333251E-01
75  7.4000000000000E-01  8.1604729455797E-01  7.0864748786693E-01  3.8957511433163E-01
76  7.5000000000000E-01  7.6628949387614E-01  7.5121607704643E-01  3.7513172728457E-01
77  7.6000000000000E-01  7.1467607363032E-01  7.9632597862819E-01  3.5684737535966E-01
78  7.7000000000000E-01  6.6137334398556E-01  8.4374740629988E-01  3.3498415806698E-01
79  7.8000000000000E-01  6.0656427123947E-01  8.9321504400743E-01  3.0985818730733E-01
80  7.9000000000000E-01  5.5044723532755E-01  9.4443025300225E-01  2.8183628775958E-01
81  8.0000000000000E-01  4.9323461392287E-01  9.9706366901669E-01  2.5133204689594E-01
82  8.1000000000000E-01  4.3515120895347E-01  1.0507581603523E+00  2.1880125781441E-01
83  8.2000000000000E-01  3.7643253318634E-01  1.1051321135587E+00  1.8473680546578E-01
84  8.3000000000000E-01  3.1732297609536E-01  1.1597830097524E+00  1.4966305361210E-01
85  8.4000000000000E-01  2.5807386953073E-01  1.2142912514972E+00  1.1412979593875E-01
86  8.5000000000000E-01  1.9894147471113E-01  1.2682241976046E+00  7.8705840047932E-02
87  8.6000000000000E-01  1.4018491276620E-01  1.3211403612113E+00  4.3972297569792E-02
88  8.7000000000000E-01  8.2064061448455E-02  1.3725937250973E+00  1.0515657262897E-02
89  8.8000000000000E-01  2.4837440717145E-02  1.4221381274089E+00 -2.1079279265688E-02
90  8.9000000000000E-01 -3.1239890330497E-02  1.4693316707512E+00 -5.0236517740048E-02
91  9.0000000000000E-01 -8.5918403229322E-02  1.5137411080000E+00 -7.6395964863357E-02
92  9.1000000000000E-01 -1.3895611547682E-01  1.5549461591279E+00 -9.9020412947789E-02
93  9.2000000000000E-01 -1.9012053135580E-01  1.5925437148058E+00 -1.1760233384493E-01
94  9.3000000000000E-01 -2.3919048949625E-01  1.6261518844968E+00 -1.3167040213821E-01
95  9.4000000000000E-01 -2.8595789994656E-01  1.6554138491304E+00 -1.4079566997568E-01
96  9.5000000000000E-01 -3.3022935522661E-01  1.6800014811997E+00 -1.4459731906987E-01
97  9.6000000000000E-01 -3.7182760167879E-01  1.6996186981713E+00 -1.4274791920487E-01
98  9.7000000000000E-01 -4.1059285937663E-01  1.7140045183832E+00 -1.3497812699762E-01
99  9.8000000000000E-01 -4.4638398085566E-01  1.7229357920474E+00 -1.2108076359724E-01
100  9.9000000000000E-01 -4.7907944095447E-01  1.7262295835039E+00 -1.0091421540727E-01
101  1.0000000000000E+00 -5.0857815205352E-01  1.7237451844151E+00 -7.4405107716433E-02
102  1.0100000000000E+00 -5.3480010093232E-01  1.7153857410699E+00 -4.1550207264406E-02
103  1.0200000000000E+00 -5.5768680529581E-01  1.7010994823317E+00 -2.4175162179229E-03
104  1.0300000000000E+00 -5.7720158971169E-01  1.6808805379492E+00  4.2853473240173E-02
105  1.0400000000000E+00 -5.9332968221637E-01  1.6547693399079E+00  9.4052387524074E-02
106  1.0500000000000E+00 -6.0607813417097E-01  1.6228526022107E+00  1.5089945999273E-01
107  1.0600000000000E+00 -6.1547556705283E-01  1.5852628769072E+00  2.1304790796289E-01
108  1.0700000000000E+00 -6.2157175074631E-01  1.5421776863566E+00  2.8008719932178E-01
109  1.0800000000000E+00 -6.2443701854757E-01  1.4938182336283E+00  3.5154720114705E-01
110  1.0900000000000E+00 -6.2416152452954E-01  1.4404476946570E+00  4.2690319356881E-01
111  1.1000000000000E+00 -6.2085434914652E-01  1.3823690973591E+00  5.0558172207736E-01
112  1.1100000000000E+00 -6.1464245902775E-01  1.3199227944748E+00  5.8696725033578E-01
113  1.1200000000000E+00 -6.0566952686342E-01  1.2534835385626E+00  6.7040956306669E-01
114  1.1300000000000E+00 -5.9409461718821E-01  1.1834571695080E+00  7.5523185428733E-01
115  1.1400000000000E+00 -5.8009074379681E-01  1.1102769273031E+00  8.4073941984153E-01
116  1.1500000000000E+00 -5.6384330458197E-01  1.0343994059756E+00  9.2622885410634E-01
117  1.1600000000000E+00 -5.4554839988044E-01  9.5630016862534E-01  1.0109976287268E+00
118  1.1700000000000E+00 -5.2541104109054E-01  8.7646904895984E-01  1.0943539052743E+00
119  1.1800000000000E+00 -5.0364325753143E-01  7.9540517177593E-01  1.1756264035843E+00
120  1.1900000000000E+00 -4.8046211144454E-01  7.1361173403333E-01  1.2541741120550E+00
121  1.2000000000000E+00 -4.5608763388025E-01  6.3159059988520E-01  1.3293955848775E+00
122  1.2100000000000E+00 -4.3074069819787E-01  5.4983677780802E-01  1.4007375230226E+00
123  1.2200000000000E+00 -4.0464085332097E-01  4.6883286648528E-01  1.4677022795468E+00
124  1.2300000000000E+00 -3.7800414592736E-01  3.8904357868789E-01  1.5298538651488E+00
125  1.2400000000000E+00 -3.5104096986760E-01  3.1091048020341E-01  1.5868219544595E+00
126  1.2500000000000E+00 -3.2395399249660E-01  2.3484711419327E-01  1.6383033073087E+00
127  1.2600000000000E+00 -2.9693622170289E-01  1.6123472122947E-01  1.6840599201812E+00
128  1.2700000000000E+00 -2.7016929473866E-01  9.0418812816798E-02  1.7239131092778E+00
129  1.2800000000000E+00 -2.4382209073302E-01  2.2706911861859E-02  1.7577325977449E+00
130  1.2900000000000E+00 -2.1804979390132E-01 -4.1632160410143E-02  1.7854195249614E+00
131  1.3000000000000E+00 -1.9299355883254E-01 -1.0236701192697E-01  1.8068823272386E+00
132  1.3100000000000E+00 -1.6878098982088E-01 -1.5929981368003E-01  1.8220032217520E+00
133  1.3200000000000E+00 -1.4552666126561E-01 -2.1226238254675E-01  1.8306303077112E+00
134  1.3300000000000E+00 -1.2333093236361E-01 -2.6111842949486E-01  1.8326413109521E+00
135  1.3400000000000E+00 -1.0227925284576E-01 -3.0576539786197E-01  1.8279727378437E+00
136  1.3500000000000E+00 -8.2442241275962E-02 -3.4613422137858E-01  1.8166190162565E+00
137  1.3600000000000E+00 -6.3875890777509E-02 -3.8218880655611E-01  1.7986317492654E+00
138  1.3700000000000E+00 -4.6621912452965E-02 -4.1392520241727E-01  1.7741182510326E+00
139  1.3800000000000E+00 -3.0708203026871E-02 -4.4137048809277E-01  1.7432395842053E+00
140  1.3900000000000E+00 -1.6149426358273E-02 -4.6458139941376E-01  1.7062081205487E+00
141  1.4000000000000E+00 -2.9476973370205E-03 -4.8364271831162E-01  1.6632846597363E+00
142  1.4100000000000E+00  8.9066441285599E-03 -4.9866545080397E-01  1.6147751454761E+00
143  1.4200000000000E+00  1.9434181910957E-02 -5.0978482082729E-01  1.5610270211201E+00
144  1.4300000000000E+00  2.8665508560357E-02 -5.1715810838389E-01  1.5024252700687E+00
145  1.4400000000000E+00  3.6640259828605E-02 -5.2096236120888E-01  1.4393881883027E+00
146  1.4500000000000E+00  4.3406112387776E-02 -5.2139200952869E-01  1.3723629379514E+00
147  1.4600000000000E+00  4.9017758181130E-02 -5.1865641351197E-01  1.3018209320098E+00
148  1.4700000000000E+00  5.3535868522092E-02 -5.1297737260705E-01  1.2282531005429E+00
149  1.4800000000000E+00  5.7026060581825E-02 -5.0458662523856E-01  1.1521650885959E+00
150  1.4900000000000E+00  5.9557878285631E-02 -4.9372336629951E-01  1.0740724353914E+00
151  1.5000000000000E+00  6.1203798869397E-02 -4.8063180849805E-01  9.9449578306555E-01
152  1.5100000000000E+00  6.2038275456853E-02 -4.6555881196411E-01  9.1395616135464E-01
153  1.5200000000000E+00  6.2136825042551E-02 -4.4875160468948E-01  8.3297039267262E-01
154  1.5300000000000E+00  6.1575170168494E-02 -4.3045561422101E-01  7.5204665909766E-01
155  1.5400000000000E+00  6.0428441446034E-02 -4.1091242879434E-01  6.7168026993741E-01
156  1.5500000000000E+00  5.8770446877553E-02 -3.9035790369135E-01  5.9234966521333E-01
157  1.5600000000000E+00  5.6673012699040E-02 -3.6902042608347E-01  5.1451268672294E-01
158  1.5700000000000E+00  5.4205399226656E-02 -3.4711934906531E-01  4.3860314456151E-01
159  1.5800000000000E+00  5.1433793936785E-02 -3.2486360293526E-01  3.6502770279471E-01
160  1.5900000000000E+00  4.8420882887394E-02 -3.0245048945509E-01  2.9416310473701E-01
161  1.6000000000000E+00  4.5225500220329E-02 -2.8006466171517E-01  2.2635375217037E-01
162  1.6100000000000E+00  4.1902354651802E-02 -2.5787729058421E-01  1.6190965140223E-01
163  1.6200000000000E+00  3.8501830562037E-02 -2.3604541564648E-01  1.0110473242429E-01
164  1.6300000000000E+00  3.5069860505076E-02 -2.1471147680605E-01  4.4175545006791E-02
165  1.6400000000000E+00  3.1647865013562E-02 -1.9400302045595E-01 -8.6796691703056E-03
166  1.6500000000000E+00  2.8272754877253E-02 -1.7403257242723E-01 -5.7301532451664E-02
167  1.6600000000000E+00  2.4976990394528E-02 -1.5489766818400E-01 -1.0156972317379E-01
168  1.6700000000000E+00  2.1788691581352E-02 -1.3668102933219E-01 -1.4140281482682E-01
169  1.6800000000000E+00  1.8731792951956E-02 -1.1945087440111E-01 -1.7675777634425E-01
170  1.6900000000000E+00  1.5826236170001E-02 -1.0326135079788E-01 -2.0762915048068E-01
171  1.7000000000000E+00  1.3088193730455E-02 -8.8153074163358E-02 -2.3404792951472E-01
172  1.7100000000000E+00  1.0530316823021E-02 -7.4153760947794E-02 -2.5608014941898E-01
173  1.7200000000000E+00  8.1620005674627E-03 -6.1278939666283E-02 -2.7382522572878E-01
174  1.7300000000000E+00  5.9896600500038E-03 -4.9532726401962E-02 -2.8741405542024E-01
175  1.7400000000000E+00  4.0170108404502E-03 -3.8908650204440E-02 -2.9700691053353E-01
176  1.7500000000000E+00  2.2453481080299E-03 -2.9390514560890E-02 -3.0279114969893E-01
177  1.7600000000000E+00  6.7381888861473E-04 -2.0953281600807E-02 -3.0497877445167E-01
178  1.7700000000000E+00 -7.0031740365853E-04 -1.3563966434854E-02 -3.0380385739138E-01
179  1.7800000000000E+00 -1.8814444816625E-03 -7.1825300257214E-03 -2.9951986885535E-01
180  1.7900000000000E+00 -2.8753643685593E-03 -1.7627598746793E-03 -2.9239692869609E-01
181  1.8000000000000E+00 -3.6890952344602E-03  2.7468710839350E-03 -2.8271900913858E-01
182  1.8100000000000E+00 -4.3306941062348E-03  6.4023756710187E-03 -2.7078111351080E-01
183  1.8200000000000E+00 -4.8091061736328E-03  9.2634613341031E-03 -2.5688645588583E-01
184  1.8300000000000E+00 -5.1340407342040E-03  1.1392780604495E-02 -2.4134365979100E-01
185  1.8400000000000E+00 -5.3158766389267E-03  1.2855234546955E-02 -2.2446401313966E-01
186  1.8500000000000E+00 -5.3655919617531E-03  1.3717320673324E-02 -2.0655877171135E-01
187  1.8600000000000E+00 -5.2947208269862E-03  1.4046537640773E-02 -1.8793655306850E-01
188  1.8700000000000E+00 -5.1153301953291E-03  1.3910838031449E-02 -1.6890082875056E-01
189  1.8800000000000E+00 -4.8400581309852E-03  1.3378208184643E-02 -1.4974761034788E-01
190  1.8900000000000E+00 -4.4820782165766E-03  1.2516127697565E-02 -1.3076306076276E-01
191  1.9000000000000E+00 -4.0550694986194E-03  1.1391061149255E-02 -1.1222122206094E-01
192  1.9100000000000E+00 -3.5760292873863E-03  1.0073322609344E-02 -9.4388338236566E-02
193  1.9200000000000E+00 -3.0799039085162E-03  8.6642961565389E-03 -7.7554395634451E-02
194  1.9300000000000E+00 -2.5862476110665E-03  7.2332558269332E-03 -6.1955273181104E-02
195  1.9400000000000E+00 -2.1000086224183E-03  5.8184398850976E-03 -4.7772787692962E-02
196  1.9500000000000E+00 -1.6310582229195E-03  4.4635093507325E-03 -3.5177747153074E-02
197  1.9600000000000E+00 -1.1911171354833E-03  3.2115257046901E-03 -2.4321743379212E-02
198  1.9700000000000E+00 -7.9427493854800E-04  2.1057232031676E-03 -1.5337320278649E-02
199  1.9800000000000E+00 -4.5726650612084E-04  1.1899847754044E-03 -8.3405669970514E-03
200  1.9900000000000E+00 -1.9688594702660E-04  5.0245936319545E-04 -3.3919437873727E-03
201  2.0000000000000E+00 -4.3290020548101E-05  1.0799664522095E-04 -6.9858447211511E-04
202  2.0100000000000E+00  3.8119550249789E-06 -9.5011404868034E-06  6.2444805071766E-05
203  2.0200000000000E+00 -1.8354958216658E-07  4.5845763673710E-07 -2.9904997439953E-06
204  2.03 -0.  0. -0.
205  2.04  0. -0.  0.
206  2.05  0. -0.  0.
207  2.06  0.  0.  0.
208  2.07  0.  0.  0.
209  2.08  0.  0.  0.
210  2.09  0.  0.  0.
211  2.10  0.  0.  0.
212  2.11  0.  0.  0.
213  2.12  0.  0.  0.
214  2.13  0.  0.  0.
215  2.14  0.  0.  0.
216  2.15  0.  0.  0.
217  2.16  0.  0.  0.
218  2.17  0.  0.  0.
219  2.18  0.  0.  0.
220  2.19  0.  0.  0.
221  2.20  0.  0.  0.
222  2.21  0.  0.  0.
223  2.22  0.  0.  0.
224  2.23  0.  0.  0.
225  2.24  0.  0.  0.
226  2.25  0.  0.  0.
227  2.26  0.  0.  0.
228  2.27  0.  0.  0.
229  2.28  0.  0.  0.
230  2.29  0.  0.  0.
231  2.30  0.  0.  0.
232  2.31  0.  0.  0.
233  2.32  0.  0.  0.
234  2.33  0.  0.  0.
235  2.34  0.  0.  0.
236  2.35  0.  0.  0.
237  2.36  0.  0.  0.
238  2.37  0.  0.  0.
239  2.38  0.  0.  0.
240  2.39  0.  0.  0.
241  2.40  0.  0.  0.
242  2.41  0.  0.  0.
243  2.42  0.  0.  0.
244  2.43  0.  0.  0.
245  2.44  0.  0.  0.
246  2.45  0.  0.  0.
247  2.46  0.  0.  0.
248  2.47  0.  0.  0.
249  2.48  0.  0.  0.
250  2.49  0.  0.  0.
251  2.50  0.  0.  0.
252  2.51  0.  0.  0.
253  2.52  0.  0.  0.
254  2.53  0.  0.  0.
255  2.54  0.  0.  0.
256  2.55  0.  0.  0.
257  2.56  0.  0.  0.
258  2.57  0.  0.  0.
259  2.58  0.  0.  0.
260  2.59  0.  0.  0.
261  2.60  0.  0.  0.
262  2.61  0.  0.  0.
263  2.62  0.  0.  0.
264  2.63  0.  0.  0.
265  2.64  0.  0.  0.
266  2.65  0.  0.  0.
267  2.66  0.  0.  0.
268  2.67  0.  0.  0.
269  2.68  0.  0.  0.
270  2.69  0.  0.  0.
271  2.70  0.  0.  0.
272  2.71  0.  0.  0.
273  2.72  0.  0.  0.
274  2.73  0.  0.  0.
275  2.74  0.  0.  0.
276  2.75  0.  0.  0.
277  2.76  0.  0.  0.
278  2.77  0.  0.  0.
279  2.78  0.  0.  0.
280  2.79  0.  0.  0.
281  2.80  0.  0.  0.
282  2.81  0.  0.  0.
283  2.82  0.  0.  0.
284  2.83  0.  0.  0.
285  2.84  0.  0.  0.
286  2.85  0.  0.  0.
287  2.86  0.  0.  0.
288  2.87  0.  0.  0.
289  2.88  0.  0.  0.
290  2.89  0.  0.  0.
291  2.90  0.  0.  0.
292  2.91  0.  0.  0.
293  2.92  0.  0.  0.
294  2.93  0.  0.  0.
295  2.94  0.  0.  0.
296  2.95  0.  0.  0.
297  2.96  0.  0.  0.
298  2.97  0.  0.  0.
299  2.98  0.  0.  0.
300  2.99  0.  0.  0.
301  3.00  0.  0.  0.
302  3.01  0.  0.  0.
303  3.02  0.  0.  0.
304  3.03  0.  0.  0.
305  3.04  0.  0.  0.
306  3.05  0.  0.  0.
307  3.06  0.  0.  0.
308  3.07  0.  0.  0.
309  3.08  0.  0.  0.
310  3.09  0.  0.  0.
311  3.10  0.  0.  0.
312  3.11  0.  0.  0.
313  3.12  0.  0.  0.
314  3.13  0.  0.  0.
315  3.14  0.  0.  0.
316  3.15  0.  0.  0.
317  3.16  0.  0.  0.
318  3.17  0.  0.  0.
319  3.18  0.  0.  0.
320  3.19  0.  0.  0.
321  3.20  0.  0.  0.
322  3.21  0.  0.  0.
323  3.22  0.  0.  0.
324  3.23  0.  0.  0.
325  3.24  0.  0.  0.
326  3.25  0.  0.  0.
327  3.26  0.  0.  0.
328  3.27  0.  0.  0.
329  3.28  0.  0.  0.
330  3.29  0.  0.  0.
331  3.30  0.  0.  0.
332  3.31  0.  0.  0.
333  3.32  0.  0.  0.
334  3.33  0.  0.  0.
335  3.34  0.  0.  0.
336  3.35  0.  0.  0.
337  3.36  0.  0.  0.
338  3.37  0.  0.  0.
339  3.38  0.  0.  0.
340  3.39  0.  0.  0.
341  3.40  0.  0.  0.
342  3.41  0.  0.  0.
343  3.42  0.  0.  0.
344  3.43  0.  0.  0.
345  3.44  0.  0.  0.
346  3.45  0.  0.  0.
347  3.46  0.  0.  0.
348  3.47  0.  0.  0.
349  3.48  0.  0.  0.
350  3.49  0.  0.  0.
351  3.50  0.  0.  0.
352  3.51  0.  0.  0.
353  3.52  0.  0.  0.
354  3.53  0.  0.  0.
355  3.54  0.  0.  0.
356  3.55  0.  0.  0.
357  3.56  0.  0.  0.
358  3.57  0.  0.  0.
359  3.58  0.  0.  0.
360  3.59  0.  0.  0.
361  3.60  0.  0.  0.
362  3.61  0.  0.  0.
363  3.62  0.  0.  0.
364  3.63  0.  0.  0.
365  3.64  0.  0.  0.
366  3.65  0.  0.  0.
367  3.66  0.  0.  0.
368  3.67  0.  0.  0.
369  3.68  0.  0.  0.
370  3.69  0.  0.  0.
371  3.70  0.  0.  0.
372  3.71  0.  0.  0.
373  3.72  0.  0.  0.
374  3.73  0.  0.  0.
375  3.74  0.  0.  0.
376  3.75  0.  0.  0.
377  3.76  0.  0.  0.
378  3.77  0.  0.  0.
379  3.78  0.  0.  0.
380  3.79  0.  0.  0.
381  3.80  0.  0.  0.
382  3.81  0.  0.  0.
383  3.82  0.  0.  0.
384  3.83  0.  0.  0.
385  3.84  0.  0.  0.
386  3.85  0.  0.  0.
387  3.86  0.  0.  0.
388  3.87  0.  0.  0.
389  3.88  0.  0.  0.
390  3.89  0.  0.  0.
391  3.90  0.  0.  0.
392  3.91  0.  0.  0.
393  3.92  0.  0.  0.
394  3.93  0.  0.  0.
395  3.94  0.  0.  0.
396  3.95  0.  0.  0.
397  3.96  0.  0.  0.
398  3.97  0.  0.  0.
399  3.98  0.  0.  0.
400  3.99  0.  0.  0.
401  4.00  0.  0.  0.
402  4.01  0.  0.  0.
403  4.02  0.  0.  0.
404  4.03  0.  0.  0.
405  4.04  0.  0.  0.
406  4.05  0.  0.  0.
407  4.06  0.  0.  0.
408  4.07  0.  0.  0.
409  4.08  0.  0.  0.
410  4.09  0.  0.  0.
411  4.10  0.  0.  0.
412  4.11  0.  0.  0.
413  4.12  0.  0.  0.
414  4.13  0.  0.  0.
415  4.14  0.  0.  0.
416  4.15  0.  0.  0.
417  4.16  0.  0.  0.
418  4.17  0.  0.  0.
419  4.18  0.  0.  0.
420  4.19  0.  0.  0.
421  4.20  0.  0.  0.
422  4.21  0.  0.  0.
423  4.22  0.  0.  0.
424  4.23  0.  0.  0.
425  4.24  0.  0.  0.
426  4.25  0.  0.  0.
427  4.26  0.  0.  0.
428  4.27  0.  0.  0.
429  4.28  0.  0.  0.
430  4.29  0.  0.  0.
431  4.30  0.  0.  0.
432  4.31  0.  0.  0.
433  4.32  0.  0.  0.
434  4.33  0.  0.  0.
435  4.34  0.  0.  0.
436  4.35  0.  0.  0.
437  4.36  0.  0.  0.
438  4.37  0.  0.  0.
439  4.38  0.  0.  0.
440  4.39  0.  0.  0.
441  4.40  0.  0.  0.
442  4.41  0.  0.  0.
443  4.42  0.  0.  0.
444  4.43  0.  0.  0.
445  4.44  0.  0.  0.
446  4.45  0.  0.  0.
447  4.46  0.  0.  0.
448  4.47  0.  0.  0.
449  4.48  0.  0.  0.
450  4.49  0.  0.  0.
451  4.50  0.  0.  0.
452  4.51  0.  0.  0.
453  4.52  0.  0.  0.
454  4.53  0.  0.  0.
455  4.54  0.  0.  0.
456  4.55  0.  0.  0.
457  4.56  0.  0.  0.
458  4.57  0.  0.  0.
459  4.58  0.  0.  0.
460  4.59  0.  0.  0.
461  4.60  0.  0.  0.
462  4.61  0.  0.  0.
463  4.62  0.  0.  0.
464  4.63  0.  0.  0.
465  4.64  0.  0.  0.
466  4.65  0.  0.  0.
467  4.66  0.  0.  0.
468  4.67  0.  0.  0.
469  4.68  0.  0.  0.
470  4.69  0.  0.  0.
471  4.70  0.  0.  0.
472  4.71  0.  0.  0.
473  4.72  0.  0.  0.
474  4.73  0.  0.  0.
475  4.74  0.  0.  0.
476  4.75  0.  0.  0.
477  4.76  0.  0.  0.
478  4.77  0.  0.  0.
479  4.78  0.  0.  0.
480  4.79  0.  0.  0.
481  4.80  0.  0.  0.
482  4.81  0.  0.  0.
483  4.82  0.  0.  0.
484  4.83  0.  0.  0.
485  4.84  0.  0.  0.
486  4.85  0.  0.  0.
487  4.86  0.  0.  0.
488  4.87  0.  0.  0.
489  4.88  0.  0.  0.
490  4.89  0.  0.  0.
491  4.90  0.  0.  0.
492  4.91  0.  0.  0.
493  4.92  0.  0.  0.
494  4.93  0.  0.  0.
495  4.94  0.  0.  0.
496  4.95  0.  0.  0.
497  4.96  0.  0.  0.
498  4.97  0.  0.  0.
499  4.98  0.  0.  0.
500  4.99  0.  0.  0.
501  5.00  0.  0.  0.
502  5.01  0.  0.  0.
503  5.02  0.  0.  0.
504  5.03  0.  0.  0.
505  5.04  0.  0.  0.
506  5.05  0.  0.  0.
507  5.06  0.  0.  0.
508  5.07  0.  0.  0.
509  5.08  0.  0.  0.
510  5.09  0.  0.  0.
511  5.10  0.  0.  0.
512  5.11  0.  0.  0.
513  5.12  0.  0.  0.
514  5.13  0.  0.  0.
515  5.14  0.  0.  0.
516  5.15  0.  0.  0.
517  5.16  0.  0.  0.
518  5.17  0.  0.  0.
519  5.18  0.  0.  0.
520  5.19  0.  0.  0.
521  5.20  0.  0.  0.
522  5.21  0.  0.  0.
523  5.22  0.  0.  0.
524  5.23  0.  0.  0.
525  5.24  0.  0.  0.
526  5.25  0.  0.  0.
527  5.26  0.  0.  0.
528  5.27  0.  0.  0.
529  5.28  0.  0.  0.
530  5.29  0.  0.  0.
531  5.30  0.  0.  0.
532  5.31  0.  0.  0.
533  5.32  0.  0.  0.
534  5.33  0.  0.  0.
535  5.34  0.  0.  0.
536  5.35  0.  0.  0.
537  5.36  0.  0.  0.
538  5.37  0.  0.  0.
539  5.38  0.  0.  0.
540  5.39  0.  0.  0.
541  5.40  0.  0.  0.
542  5.41  0.  0.  0.
543  5.42  0.  0.  0.
544  5.43  0.  0.  0.
545  5.44  0.  0.  0.
546  5.45  0.  0.  0.
547  5.46  0.  0.  0.
548  5.47  0.  0.  0.
549  5.48  0.  0.  0.
550  5.49  0.  0.  0.
551  5.50  0.  0.  0.
552  5.51  0.  0.  0.
553  5.52  0.  0.  0.
554  5.53  0.  0.  0.
555  5.54  0.  0.  0.
556  5.55  0.  0.  0.
557  5.56  0.  0.  0.
558  5.57  0.  0.  0.
559  5.58  0.  0.  0.
560  5.59  0.  0.  0.
561  5.60  0.  0.  0.
562  5.61  0.  0.  0.
563  5.62  0.  0.  0.
564  5.63  0.  0.  0.
565  5.64  0.  0.  0.
566  5.65  0.  0.  0.
567  5.66  0.  0.  0.
568  5.67  0.  0.  0.
569  5.68  0.  0.  0.
570  5.69  0.  0.  0.
571  5.70  0.  0.  0.
572  5.71  0.  0.  0.
573  5.72  0.  0.  0.
574  5.73  0.  0.  0.
575  5.74  0.  0.  0.
576  5.75  0.  0.  0.
577  5.76  0.  0.  0.
578  5.77  0.  0.  0.
579  5.78  0.  0.  0.
580  5.79  0.  0.  0.
581  5.80  0.  0.  0.
582  5.81  0.  0.  0.
583  5.82  0.  0.  0.
584  5.83  0.  0.  0.
585  5.84  0.  0.  0.
586  5.85  0.  0.  0.
587  5.86  0.  0.  0.
588  5.87  0.  0.  0.
589  5.88  0.  0.  0.
590  5.89  0.  0.  0.
591  5.90  0.  0.  0.
592  5.91  0.  0.  0.
593  5.92  0.  0.  0.
594  5.93  0.  0.  0.
595  5.94  0.  0.  0.
596  5.95  0.  0.  0.
597  5.96  0.  0.  0.
598  5.97  0.  0.  0.
599  5.98  0.  0.  0.
600  5.99  0.  0.  0.
1                         7.5627606328469E+00  8.0796834913893E-01
1  0.0000000000000E+00  7.5437600610684E-10 -3.6268629280412E-09
2  1.0000000000000E-02  1.0857259164124E-03 -9.5898535650205E-04
3  2.0000000000000E-02  4.3388815371768E-03 -3.8257632934917E-03
4  3.0000000000000E-02  9.7474311350628E-03 -8.5699354015461E-03
5  4.0000000000000E-02  1.7291416926060E-02 -1.5141288895855E-02
6  5.0000000000000E-02  2.6943110204392E-02 -2.3470466274012E-02
7  6.0000000000000E-02  3.8667219942782E-02 -3.3469888573863E-02
8  7.0000000000000E-02  5.2421155927970E-02 -4.5034918232565E-02
9  8.0000000000000E-02  6.8155342747038E-02 -5.8045243921200E-02
10  9.0000000000000E-02  8.5813580246097E-02 -7.2366466374438E-02
11  1.0000000000000E-01  1.0533344546033E-01 -8.7851861203731E-02
12  1.1000000000000E-01  1.2664673047376E-01 -1.0434429202211E-01
13  1.2000000000000E-01  1.4967991021716E-01 -1.2167824496058E-01
14  1.3000000000000E-01  1.7435463386060E-01 -1.3968195385500E-01
15  1.4000000000000E-01  2.0058823320925E-01 -1.5817958405690E-01
16  1.5000000000000E-01  2.2829424137095E-01 -1.7699344199220E-01
17  1.6000000000000E-01  2.5738291493458E-01 -1.9594617727297E-01
18  1.7000000000000E-01  2.8776175297904E-01 -2.1486294436281E-01
19  1.8000000000000E-01  3.1933600642375E-01 -2.3357349150560E-01
20  1.9000000000000E-01  3.5200917152811E-01 -2.5191414583913E-01
21  2.0000000000000E-01  3.8568346174594E-01 -2.6972966531116E-01
22  2.1000000000000E-01  4.2026025263407E-01 -2.8687493017072E-01
23  2.2000000000000E-01  4.5564049509380E-01 -3.0321644938902E-01
24  2.3000000000000E-01  4.9172509288078E-01 -3.1863366033209E-01
25  2.4000000000000E-01  5.2841524104079E-01 -3.3302000331687E-01
26  2.5000000000000E-01  5.6561272270529E-01 -3.4628375628119E-01
27  2.6000000000000E-01  6.0322016249656E-01 -3.5834861863182E-01
28  2.7000000000000E-01  6.4114123563561E-01 -3.6915403734276E-01
29  2.8000000000000E-01  6.7928083270054E-01 -3.7865527249618E-01
30  2.9000000000000E-01  7.1754518083592E-01 -3.8682320362635E-01
31  3.0000000000000E-01  7.5584192304822E-01 -3.9364388237673E-01
32  3.1000000000000E-01  7.9408015802562E-01 -3.9911784104717E-01
33  3.2000000000000E-01  8.3217044367698E-01 -4.0325917052656E-01
34  3.3000000000000E-01  8.7002476828201E-01 -4.0609438481501E-01
35  3.4000000000000E-01  9.0755649376942E-01 -4.0766109277768E-01
36  3.5000000000000E-01  9.4468027618114E-01 -4.0800650088690E-01
37  3.6000000000000E-01  9.8131196882787E-01 -4.0718577344587E-01
38  3.7000000000000E-01  1.0173685139864E+00 -4.0526027910599E-01
39  3.8000000000000E-01  1.0527678292250E+00 -4.0229575434748E-01
40  3.9000000000000E-01  1.0874286945631E+00 -3.9836041596217E-01
41  4.0000000000000E-01  1.1212706466778E+00 -3.9352305543181E-01
42  4.1000000000000E-01  1.1542138862508E+00 -3.8785114842142E-01
43  4.2000000000000E-01  1.1861792043189E+00 -3.8140901239591E-01
44  4.3000000000000E-01  1.2170879331415E+00 -3.7425604462331E-01
45  4.4000000000000E-01  1.2468619266387E+00 -3.6644507155708E-01
46  4.5000000000000E-01  1.2754235748943E+00 -3.5802083881350E-01