Ho    ONCVPSP-4.0.1  r_core=   2.00759   1.60898   1.90236   1.40216
67.0000     21.0000      241101    zatom,zion,pspd
8      11   3     4   600     0    pspcod,pspxc,lmax,lloc,mmax,r2well
5.99000000  4.00000000  0.00000000    rchrg fchrg qchrg
2     2     2     2     0    nproj
1     1           extension_switch
0                         7.4214168973776E+00  1.0036349280627E+00
1  0.0000000000000E+00  7.1418093661180E-11 -2.0253484306343E-10
2  1.0000000000000E-02  4.2165832077935E-02 -4.3509259548290E-03
3  2.0000000000000E-02  8.4307260177708E-02 -8.7285023051726E-03
4  3.0000000000000E-02  1.2639971686101E-01 -1.3158874869086E-02
5  4.0000000000000E-02  1.6841830975173E-01 -1.7667185658373E-02
6  5.0000000000000E-02  2.1033766400497E-01 -2.2277084295334E-02
7  6.0000000000000E-02  2.5213177065076E-01 -2.7010255268857E-02
8  7.0000000000000E-02  2.9377384268617E-01 -3.1885966070073E-02
9  8.0000000000000E-02  3.3523618071831E-01 -3.6920641045287E-02
10  9.0000000000000E-02  3.7649004987247E-01 -4.2127465554054E-02
11  1.0000000000000E-01  4.1750556957537E-01 -4.7516024725418E-02
12  1.1000000000000E-01  4.5825161770454E-01 -5.3091980768083E-02
13  1.2000000000000E-01  4.9869575046104E-01 -5.8856792413690E-02
14  1.3000000000000E-01  5.3880413917686E-01 -6.4807479659729E-02
15  1.4000000000000E-01  5.7854152510963E-01 -7.0936436533755E-02
16  1.5000000000000E-01  6.1787119310935E-01 -7.7231294127456E-02
17  1.6000000000000E-01  6.5675496486388E-01 -8.3674835652022E-02
18  1.7000000000000E-01  6.9515321224527E-01 -9.0244964749980E-02
19  1.8000000000000E-01  7.3302489108812E-01 -9.6914727767460E-02
20  1.9000000000000E-01  7.7032759553634E-01 -1.0365239015038E-01
21  2.0000000000000E-01  8.0701763289701E-01 -1.1042156658258E-01
22  2.1000000000000E-01  8.4305011874212E-01 -1.1718140393925E-01
23  2.2000000000000E-01  8.7837909180170E-01 -1.2388681559015E-01
24  2.3000000000000E-01  9.1295764799740E-01 -1.3048876505878E-01
25  2.4000000000000E-01  9.4673809277600E-01 -1.3693459653204E-01
26  2.5000000000000E-01  9.7967211071844E-01 -1.4316840922383E-01
27  2.6000000000000E-01  1.0117109512247E+00 -1.4913147213141E-01
28  2.7000000000000E-01  1.0428056289085E+00 -1.5476267528952E-01
29  2.8000000000000E-01  1.0729071371820E+00 -1.5999901322843E-01
30  2.9000000000000E-01  1.1019666733664E+00 -1.6477609598310E-01
31  3.0000000000000E-01  1.1299358735393E+00 -1.6902868268519E-01
32  3.1000000000000E-01  1.1567670552146E+00 -1.7269123250066E-01
33  3.2000000000000E-01  1.1824134658553E+00 -1.7569846745775E-01
34  3.3000000000000E-01  1.2068295351422E+00 -1.7798594154446E-01
35  3.4000000000000E-01  1.2299711288587E+00 -1.7949061034430E-01
36  3.5000000000000E-01  1.2517958022142E+00 -1.8015139542578E-01
37  3.6000000000000E-01  1.2722630504047E+00 -1.7990973770635E-01
38  3.7000000000000E-01  1.2913345542100E+00 -1.7871013407464E-01
39  3.8000000000000E-01  1.3089744184445E+00 -1.7650065167847E-01
40  3.9000000000000E-01  1.3251494011208E+00 -1.7323341446710E-01
41  4.0000000000000E-01  1.3398291312420E+00 -1.6886505681564E-01
42  4.1000000000000E-01  1.3529863132216E+00 -1.6335713935450E-01
43  4.2000000000000E-01  1.3645969160266E+00 -1.5667652247616E-01
44  4.3000000000000E-01  1.3746403452594E+00 -1.4879569339127E-01
45  4.4000000000000E-01  1.3830995965280E+00 -1.3969304305476E-01
46  4.5000000000000E-01  1.3899613886068E+00 -1.2935308977365E-01
47  4.6000000000000E-01  1.3952162750602E+00 -1.1776664684110E-01
48  4.7000000000000E-01  1.3988587331776E+00 -1.0493093210663E-01
49  4.8000000000000E-01  1.4008872292706E+00 -9.0849617989029E-02
50  4.9000000000000E-01  1.4013042595797E+00 -7.5532821058287E-02
51  5.0000000000000E-01  1.4001163662592E+00 -5.8997030950508E-02
52  5.1000000000000E-01  1.3973341281252E+00 -4.1264979029340E-02
53  5.2000000000000E-01  1.3929721260796E+00 -2.2365447861672E-02
54  5.3000000000000E-01  1.3870488833523E+00 -2.3330232283634E-03
55  5.4000000000000E-01  1.3795867809333E+00  1.8792208965266E-02
56  5.5000000000000E-01  1.3706119487940E+00  4.0965017885221E-02
57  5.6000000000000E-01  1.3601541337235E+00  6.4135431470617E-02
58  5.7000000000000E-01  1.3482465448229E+00  8.8249184462941E-02
59  5.8000000000000E-01  1.3349256779145E+00  1.1324820604248E-01
60  5.9000000000000E-01  1.3202311203210E+00  1.3907114185090E-01
61  6.0000000000000E-01  1.3042053376611E+00  1.6565390472646E-01
62  6.1000000000000E-01  1.2868934444826E+00  1.9293024807946E-01
63  6.2000000000000E-01  1.2683429607133E+00  2.2083235549494E-01
64  6.3000000000000E-01  1.2486035560528E+00  2.4929143987285E-01
65  6.4000000000000E-01  1.2277267845504E+00  2.7823834520638E-01
66  6.5000000000000E-01  1.2057658117181E+00  3.0760414396066E-01
67  6.6000000000000E-01  1.1827751366085E+00  3.3732072294933E-01
68  6.7000000000000E-01  1.1588103113459E+00  3.6732135061798E-01
69  6.8000000000000E-01  1.1339276606357E+00  3.9754121873186E-01
70  6.9000000000000E-01  1.1081840037873E+00  4.2791795163203E-01
71  7.0000000000000E-01  1.0816363817744E+00  4.5839207646870E-01
72  7.1000000000000E-01  1.0543417918205E+00  4.8890744814165E-01
73  7.2000000000000E-01  1.0263569319344E+00  5.1941162307440E-01
74  7.3000000000000E-01  9.9773795773969E-01  5.4985617641784E-01
75  7.4000000000000E-01  9.6854025382926E-01  5.8019695781823E-01
76  7.5000000000000E-01  9.3881822175101E-01  6.1039428148818E-01
77  7.6000000000000E-01  9.0862508657471E-01  6.4041304698486E-01
78  7.7000000000000E-01  8.7801272381997E-01  6.7022278782029E-01
79  7.8000000000000E-01  8.4703150833297E-01  6.9979764579920E-01
80  7.9000000000000E-01  8.1573018649086E-01  7.2911626979366E-01
81  8.0000000000000E-01  7.8415577288743E-01  7.5816163851477E-01
82  8.1000000000000E-01  7.5235347241437E-01  7.8692080772060E-01
83  8.2000000000000E-01  7.2036662840072E-01  8.1538458320220E-01
84  8.3000000000000E-01  6.8823669721024E-01  8.4354712180427E-01
85  8.4000000000000E-01  6.5600324942600E-01  8.7140546365922E-01
86  8.5000000000000E-01  6.2370399747309E-01  8.9895899973301E-01
87  8.6000000000000E-01  5.9137484924870E-01  9.2620887969073E-01
88  8.7000000000000E-01  5.5904998704357E-01  9.5315736598142E-01
89  8.8000000000000E-01  5.2676197075341E-01  9.7980714090774E-01
90  8.9000000000000E-01  4.9454186409491E-01  1.0061605742777E+00
91  9.0000000000000E-01  4.6241938226015E-01  1.0322189600263E+00
92  9.1000000000000E-01  4.3042305916776E-01  1.0579817309385E+00
93  9.2000000000000E-01  3.9858043220056E-01  1.0834456612882E+00
94  9.3000000000000E-01  3.6691824206040E-01  1.1086040678375E+00
95  9.4000000000000E-01  3.3546264512136E-01  1.1334460201890E+00
96  9.5000000000000E-01  3.0423943542679E-01  1.1579555719691E+00
97  9.6000000000000E-01  2.7327427325310E-01  1.1821110247155E+00
98  9.7000000000000E-01  2.4259291695693E-01  1.2058842366527E+00
99  9.8000000000000E-01  2.1222145463438E-01  1.2292399887566E+00
100  9.9000000000000E-01  1.8218653195163E-01  1.2521354206247E+00
101  1.0000000000000E+00  1.5251557235966E-01  1.2745195486810E+00
102  1.0100000000000E+00  1.2323698578243E-01  1.2963328791388E+00
103  1.0200000000000E+00  9.4380361770828E-02  1.3175071279260E+00
104  1.0300000000000E+00  6.5976643046638E-02  1.3379650594255E+00
105  1.0400000000000E+00  3.8058275324239E-02  1.3576204553970E+00
106  1.0500000000000E+00  1.0659329296394E-02  1.3763782248180E+00
107  1.0600000000000E+00 -1.6184409292211E-02  1.3941346645932E+00
108  1.0700000000000E+00 -4.2435385479993E-02  1.4107778801281E+00
109  1.0800000000000E+00 -6.8054260700571E-02  1.4261883736286E+00
110  1.0900000000000E+00 -9.2999941860047E-02  1.4402398066592E+00
111  1.1000000000000E+00 -1.1722965732856E-01  1.4527999419500E+00
112  1.1100000000000E+00 -1.4069908299038E-01  1.4637317676716E+00
113  1.1200000000000E+00 -1.6336252112060E-01  1.4728948053766E+00
114  1.1300000000000E+00 -1.8517313439776E-01  1.4801466005041E+00
115  1.1400000000000E+00 -2.0608323681627E-01  1.4853443917566E+00
116  1.1500000000000E+00 -2.2604464261390E-01  1.4883469527256E+00
117  1.1600000000000E+00 -2.4500907357650E-01  1.4890165958739E+00
118  1.1700000000000E+00 -2.6292862420151E-01  1.4872213253011E+00
119  1.1800000000000E+00 -2.7975628319434E-01  1.4828371206324E+00
120  1.1900000000000E+00 -2.9544650861163E-01  1.4757503298036E+00
121  1.2000000000000E+00 -3.0995585264830E-01  1.4658601434521E+00
122  1.2100000000000E+00 -3.2324363057317E-01  1.4530811180154E+00
123  1.2200000000000E+00 -3.3527262662683E-01  1.4373457084085E+00
124  1.2300000000000E+00 -3.4600982781183E-01  1.4186067643314E+00
125  1.2400000000000E+00 -3.5542717437620E-01  1.3968399366704E+00
126  1.2500000000000E+00 -3.6350231343415E-01  1.3720459321754E+00
127  1.2600000000000E+00 -3.7021933954706E-01  1.3442525455016E+00
128  1.2700000000000E+00 -3.7556950316960E-01  1.3135163876916E+00
129  1.2800000000000E+00 -3.7955186466652E-01  1.2799242193085E+00
130  1.2900000000000E+00 -3.8217386807201E-01  1.2435937845368E+00
131  1.3000000000000E+00 -3.8345180487696E-01  1.2046740295890E+00
132  1.3100000000000E+00 -3.8341113388896E-01  1.1633445747011E+00
133  1.3200000000000E+00 -3.8208661858189E-01  1.1198142937529E+00
134  1.3300000000000E+00 -3.7952223828279E-01  1.0743188389458E+00
135  1.3400000000000E+00 -3.7577082406035E-01  1.0271169301026E+00
136  1.3500000000000E+00 -3.7089336423426E-01  9.7848520886030E-01
137  1.3600000000000E+00 -3.6495791796287E-01  9.2871143714530E-01
138  1.3700000000000E+00 -3.5803806840509E-01  8.7808579689181E-01
139  1.3800000000000E+00 -3.5021083880611E-01  8.2689002008467E-01
140  1.3900000000000E+00 -3.4155398638153E-01  7.7538405124121E-01
141  1.4000000000000E+00 -3.3214262202701E-01  7.2379015586421E-01
142  1.4100000000000E+00 -3.2204509438590E-01  6.7227439166251E-01
143  1.4200000000000E+00 -3.1132399881990E-01  6.2095977520790E-01
144  1.4300000000000E+00 -3.0004214820525E-01  5.6996602993266E-01
145  1.4400000000000E+00 -2.8826366338357E-01  5.1941721752931E-01
146  1.4500000000000E+00 -2.7605365493336E-01  4.6944070041071E-01
147  1.4600000000000E+00 -2.6347793066378E-01  4.2016630570375E-01
148  1.4700000000000E+00 -2.5060268327851E-01  3.7172540697978E-01
149  1.4800000000000E+00 -2.3749416656107E-01  3.2424996776392E-01
150  1.4900000000000E+00 -2.2421836237779E-01  2.7787155318832E-01
151  1.5000000000000E+00 -2.1084064122825E-01  2.3272031843940E-01
152  1.5100000000000E+00 -1.9742541918088E-01  1.8892398300260E-01
153  1.5200000000000E+00 -1.8403581414578E-01  1.4660680014730E-01
154  1.5300000000000E+00 -1.7073330446630E-01  1.0588853114261E-01
155  1.5400000000000E+00 -1.5757739286013E-01  6.6883433906829E-02
156  1.5500000000000E+00 -1.4462527874130E-01  2.9699275807165E-02
157  1.5600000000000E+00 -1.3193154192313E-01 -5.5636197705149E-03
158  1.5700000000000E+00 -1.1954784063337E-01 -3.8813283682494E-02
159  1.5800000000000E+00 -1.0752262672810E-01 -6.9966958789862E-02
160  1.5900000000000E+00 -9.5900880739603E-02 -9.8951896887061E-02
161  1.6000000000000E+00 -8.4723869604340E-02 -1.2570608526242E-01
162  1.6100000000000E+00 -7.4028929082887E-02 -1.5017889697757E-01
163  1.6200000000000E+00 -6.3849273512263E-02 -1.7233165574603E-01
164  1.6300000000000E+00 -5.4213834630173E-02 -1.9213811015026E-01
165  1.6400000000000E+00 -4.5147131320480E-02 -2.0958481107372E-01
166  1.6500000000000E+00 -3.6669171772668E-02 -2.2467138750361E-01
167  1.6600000000000E+00 -2.8795389263522E-02 -2.3741071677388E-01
168  1.6700000000000E+00 -2.1536612480327E-02 -2.4782898623522E-01
169  1.6800000000000E+00 -1.4899071018425E-02 -2.5596564423571E-01
170  1.6900000000000E+00 -8.8844363423893E-03 -2.6187323943062E-01
171  1.7000000000000E+00 -3.4898981926118E-03 -2.6561714841106E-01
172  1.7100000000000E+00  1.2917238914981E-03 -2.6727519262513E-01
173  1.7200000000000E+00  5.4718346109745E-03 -2.6693714672035E-01
174  1.7300000000000E+00  9.0658834798569E-03 -2.6470414134216E-01
175  1.7400000000000E+00  1.2093153241040E-02 -2.6068796454228E-01
176  1.7500000000000E+00  1.4576517710237E-02 -2.5501026680670E-01
177  1.7600000000000E+00  1.6542170944672E-02 -2.4780167573681E-01
178  1.7700000000000E+00  1.8019329907396E-02 -2.3920082729784E-01
179  1.7800000000000E+00  1.9039913033628E-02 -2.2935332128957E-01
180  1.7900000000000E+00  1.9638197362315E-02 -2.1841060954107E-01
181  1.8000000000000E+00  1.9850457106973E-02 -2.0652882600661E-01
182  1.8100000000000E+00  1.9714586707016E-02 -1.9386756846604E-01
183  1.8200000000000E+00  1.9269711590194E-02 -1.8058864216539E-01
184  1.8300000000000E+00  1.8555789906821E-02 -1.6685477576729E-01
185  1.8400000000000E+00  1.7613209127212E-02 -1.5282832235019E-01
186  1.8500000000000E+00  1.6482379642732E-02 -1.3866995140751E-01
187  1.8600000000000E+00  1.5203331060174E-02 -1.2453735145136E-01
188  1.8700000000000E+00  1.3815314322354E-02 -1.1058395232804E-01
189  1.8800000000000E+00  1.2356406550685E-02 -9.6957657924446E-02
190  1.8900000000000E+00  1.0863139167696E-02 -8.3799652340713E-02
191  1.9000000000000E+00  9.3701415827907E-03 -7.1243254436315E-02
192  1.9100000000000E+00  7.9095381085216E-03 -5.9412108501159E-02
193  1.9200000000000E+00  6.5093055261760E-03 -4.8415428554933E-02
194  1.9300000000000E+00  5.1960675334011E-03 -3.8355615375652E-02
195  1.9400000000000E+00  3.9947215061887E-03 -2.9327201956829E-02
196  1.9500000000000E+00  2.9263782834235E-03 -2.1411093595409E-02
197  1.9600000000000E+00  2.0084561017564E-03 -1.4674713785062E-02
198  1.9700000000000E+00  1.2544674184258E-03 -9.1713359127738E-03
199  1.9800000000000E+00  6.7413169765748E-04 -4.9415137657339E-03
200  1.9900000000000E+00  2.7034128692111E-04 -1.9906841790986E-03
201  2.0000000000000E+00  5.4667289637456E-05 -4.0537713466537E-04
202  2.0100000000000E+00 -4.8845446298932E-06  3.6395397378286E-05
203  2.0200000000000E+00  2.3428843418312E-07 -1.7393518590508E-06
204  2.03  0. -0.
205  2.04 -0.  0.
206  2.05 -0. -0.
207  2.06  0.  0.
208  2.07  0.  0.
209  2.08  0.  0.
210  2.09  0.  0.
211  2.10  0.  0.
212  2.11  0.  0.
213  2.12  0.  0.
214  2.13  0.  0.
215  2.14  0.  0.
216  2.15  0.  0.
217  2.16  0.  0.
218  2.17  0.  0.
219  2.18  0.  0.
220  2.19  0.  0.
221  2.20  0.  0.
222  2.21  0.  0.
223  2.22  0.  0.
224  2.23  0.  0.
225  2.24  0.  0.
226  2.25  0.  0.
227  2.26  0.  0.
228  2.27  0.  0.
229  2.28  0.  0.
230  2.29  0.  0.
231  2.30  0.  0.
232  2.31  0.  0.
233  2.32  0.  0.
234  2.33  0.  0.
235  2.34  0.  0.
236  2.35  0.  0.
237  2.36  0.  0.
238  2.37  0.  0.
239  2.38  0.  0.
240  2.39  0.  0.
241  2.40  0.  0.
242  2.41  0.  0.
243  2.42  0.  0.
244  2.43  0.  0.
245  2.44  0.  0.
246  2.45  0.  0.
247  2.46  0.  0.
248  2.47  0.  0.
249  2.48  0.  0.
250  2.49  0.  0.
251  2.50  0.  0.
252  2.51  0.  0.
253  2.52  0.  0.
254  2.53  0.  0.
255  2.54  0.  0.
256  2.55  0.  0.
257  2.56  0.  0.
258  2.57  0.  0.
259  2.58  0.  0.
260  2.59  0.  0.
261  2.60  0.  0.
262  2.61  0.  0.
263  2.62  0.  0.
264  2.63  0.  0.
265  2.64  0.  0.
266  2.65  0.  0.
267  2.66  0.  0.
268  2.67  0.  0.
269  2.68  0.  0.
270  2.69  0.  0.
271  2.70  0.  0.
272  2.71  0.  0.
273  2.72  0.  0.
274  2.73  0.  0.
275  2.74  0.  0.
276  2.75  0.  0.
277  2.76  0.  0.
278  2.77  0.  0.
279  2.78  0.  0.
280  2.79  0.  0.
281  2.80  0.  0.
282  2.81  0.  0.
283  2.82  0.  0.
284  2.83  0.  0.
285  2.84  0.  0.
286  2.85  0.  0.
287  2.86  0.  0.
288  2.87  0.  0.
289  2.88  0.  0.
290  2.89  0.  0.
291  2.90  0.  0.
292  2.91  0.  0.
293  2.92  0.  0.
294  2.93  0.  0.
295  2.94  0.  0.
296  2.95  0.  0.
297  2.96  0.  0.
298  2.97  0.  0.
299  2.98  0.  0.
300  2.99  0.  0.
301  3.00  0.  0.
302  3.01  0.  0.
303  3.02  0.  0.
304  3.03  0.  0.
305  3.04  0.  0.
306  3.05  0.  0.
307  3.06  0.  0.
308  3.07  0.  0.
309  3.08  0.  0.
310  3.09  0.  0.
311  3.10  0.  0.
312  3.11  0.  0.
313  3.12  0.  0.
314  3.13  0.  0.
315  3.14  0.  0.
316  3.15  0.  0.
317  3.16  0.  0.
318  3.17  0.  0.
319  3.18  0.  0.
320  3.19  0.  0.
321  3.20  0.  0.
322  3.21  0.  0.
323  3.22  0.  0.
324  3.23  0.  0.
325  3.24  0.  0.
326  3.25  0.  0.
327  3.26  0.  0.
328  3.27  0.  0.
329  3.28  0.  0.
330  3.29  0.  0.
331  3.30  0.  0.
332  3.31  0.  0.
333  3.32  0.  0.
334  3.33  0.  0.
335  3.34  0.  0.
336  3.35  0.  0.
337  3.36  0.  0.
338  3.37  0.  0.
339  3.38  0.  0.
340  3.39  0.  0.
341  3.40  0.  0.
342  3.41  0.  0.
343  3.42  0.  0.
344  3.43  0.  0.
345  3.44  0.  0.
346  3.45  0.  0.
347  3.46  0.  0.
348  3.47  0.  0.
349  3.48  0.  0.
350  3.49  0.  0.
351  3.50  0.  0.
352  3.51  0.  0.
353  3.52  0.  0.
354  3.53  0.  0.
355  3.54  0.  0.
356  3.55  0.  0.
357  3.56  0.  0.
358  3.57  0.  0.
359  3.58  0.  0.
360  3.59  0.  0.
361  3.60  0.  0.
362  3.61  0.  0.
363  3.62  0.  0.
364  3.63  0.  0.
365  3.64  0.  0.
366  3.65  0.  0.
367  3.66  0.  0.
368  3.67  0.  0.
369  3.68  0.  0.
370  3.69  0.  0.
371  3.70  0.  0.
372  3.71  0.  0.
373  3.72  0.  0.
374  3.73  0.  0.
375  3.74  0.  0.
376  3.75  0.  0.
377  3.76  0.  0.
378  3.77  0.  0.
379  3.78  0.  0.
380  3.79  0.  0.
381  3.80  0.  0.
382  3.81  0.  0.
383  3.82  0.  0.
384  3.83  0.  0.
385  3.84  0.  0.
386  3.85  0.  0.
387  3.86  0.  0.
388  3.87  0.  0.
389  3.88  0.  0.
390  3.89  0.  0.
391  3.90  0.  0.
392  3.91  0.  0.
393  3.92  0.  0.
394  3.93  0.  0.
395  3.94  0.  0.
396  3.95  0.  0.
397  3.96  0.  0.
398  3.97  0.  0.
399  3.98  0.  0.
400  3.99  0.  0.
401  4.00  0.  0.
402  4.01  0.  0.
403  4.02  0.  0.
404  4.03  0.  0.
405  4.04  0.  0.
406  4.05  0.  0.
407  4.06  0.  0.
408  4.07  0.  0.
409  4.08  0.  0.
410  4.09  0.  0.
411  4.10  0.  0.
412  4.11  0.  0.
413  4.12  0.  0.
414  4.13  0.  0.
415  4.14  0.  0.
416  4.15  0.  0.
417  4.16  0.  0.
418  4.17  0.  0.
419  4.18  0.  0.
420  4.19  0.  0.
421  4.20  0.  0.
422  4.21  0.  0.
423  4.22  0.  0.
424  4.23  0.  0.
425  4.24  0.  0.
426  4.25  0.  0.
427  4.26  0.  0.
428  4.27  0.  0.
429  4.28  0.  0.
430  4.29  0.  0.
431  4.30  0.  0.
432  4.31  0.  0.
433  4.32  0.  0.
434  4.33  0.  0.
435  4.34  0.  0.
436  4.35  0.  0.
437  4.36  0.  0.
438  4.37  0.  0.
439  4.38  0.  0.
440  4.39  0.  0.
441  4.40  0.  0.
442  4.41  0.  0.
443  4.42  0.  0.
444  4.43  0.  0.
445  4.44  0.  0.
446  4.45  0.  0.
447  4.46  0.  0.
448  4.47  0.  0.
449  4.48  0.  0.
450  4.49  0.  0.
451  4.50  0.  0.
452  4.51  0.  0.
453  4.52  0.  0.
454  4.53  0.  0.
455  4.54  0.  0.
456  4.55  0.  0.
457  4.56  0.  0.
458  4.57  0.  0.
459  4.58  0.  0.
460  4.59  0.  0.
461  4.60  0.  0.
462  4.61  0.  0.
463  4.62  0.  0.
464  4.63  0.  0.
465  4.64  0.  0.
466  4.65  0.  0.
467  4.66  0.  0.
468  4.67  0.  0.
469  4.68  0.  0.
470  4.69  0.  0.
471  4.70  0.  0.
472  4.71  0.  0.
473  4.72  0.  0.
474  4.73  0.  0.
475  4.74  0.  0.
476  4.75  0.  0.
477  4.76  0.  0.
478  4.77  0.  0.
479  4.78  0.  0.
480  4.79  0.  0.
481  4.80  0.  0.
482  4.81  0.  0.
483  4.82  0.  0.
484  4.83  0.  0.
485  4.84  0.  0.
486  4.85  0.  0.
487  4.86  0.  0.
488  4.87  0.  0.
489  4.88  0.  0.
490  4.89  0.  0.
491  4.90  0.  0.
492  4.91  0.  0.
493  4.92  0.  0.
494  4.93  0.  0.
495  4.94  0.  0.
496  4.95  0.  0.
497  4.96  0.  0.
498  4.97  0.  0.
499  4.98  0.  0.
500  4.99  0.  0.
501  5.00  0.  0.
502  5.01  0.  0.
503  5.02  0.  0.
504  5.03  0.  0.
505  5.04  0.  0.
506  5.05  0.  0.
507  5.06  0.  0.
508  5.07  0.  0.
509  5.08  0.  0.
510  5.09  0.  0.
511  5.10  0.  0.
512  5.11  0.  0.
513  5.12  0.  0.
514  5.13  0.  0.
515  5.14  0.  0.
516  5.15  0.  0.
517  5.16  0.  0.
518  5.17  0.  0.
519  5.18  0.  0.
520  5.19  0.  0.
521  5.20  0.  0.
522  5.21  0.  0.
523  5.22  0.  0.
524  5.23  0.  0.
525  5.24  0.  0.
526  5.25  0.  0.
527  5.26  0.  0.
528  5.27  0.  0.
529  5.28  0.  0.
530  5.29  0.  0.
531  5.30  0.  0.
532  5.31  0.  0.
533  5.32  0.  0.
534  5.33  0.  0.
535  5.34  0.  0.
536  5.35  0.  0.
537  5.36  0.  0.
538  5.37  0.  0.
539  5.38  0.  0.
540  5.39  0.  0.
541  5.40  0.  0.
542  5.41  0.  0.
543  5.42  0.  0.
544  5.43  0.  0.
545  5.44  0.  0.
546  5.45  0.  0.
547  5.46  0.  0.
548  5.47  0.  0.
549  5.48  0.  0.
550  5.49  0.  0.
551  5.50  0.  0.
552  5.51  0.  0.
553  5.52  0.  0.
554  5.53  0.  0.
555  5.54  0.  0.
556  5.55  0.  0.
557  5.56  0.  0.
558  5.57  0.  0.
559  5.58  0.  0.
560  5.59  0.  0.
561  5.60  0.  0.
562  5.61  0.  0.
563  5.62  0.  0.
564  5.63  0.  0.
565  5.64  0.  0.
566  5.65  0.  0.
567  5.66  0.  0.
568  5.67  0.  0.
569  5.68  0.  0.
570  5.69  0.  0.
571  5.70  0.  0.
572  5.71  0.  0.
573  5.72  0.  0.
574  5.73  0.  0.
575  5.74  0.  0.
576  5.75  0.  0.
577  5.76  0.  0.
578  5.77  0.  0.
579  5.78  0.  0.
580  5.79  0.  0.
581  5.80  0.  0.
582  5.81  0.  0.
583  5.82  0.  0.
584  5.83  0.  0.
585  5.84  0.  0.
586  5.85  0.  0.
587  5.86  0.  0.
588  5.87  0.  0.
589  5.88  0.  0.
590  5.89  0.  0.
591  5.90  0.  0.
592  5.91  0.  0.
593  5.92  0.  0.
594  5.93  0.  0.
595  5.94  0.  0.
596  5.95  0.  0.
597  5.96  0.  0.
598  5.97  0.  0.
599  5.98  0.  0.
600  5.99  0.  0.
1                         6.5444380369412E+00  5.2829840730676E-01
1  0.0000000000000E+00  1.1850247172429E-09 -6.3176638920304E-09
2  1.0000000000000E-02  1.1620014601855E-03 -1.1790327000221E-03
3  2.0000000000000E-02  4.6430009895265E-03 -4.7009823836629E-03
4  3.0000000000000E-02  1.0428029478586E-02 -1.0520629323878E-02
5  4.0000000000000E-02  1.8492289209753E-02 -1.8563355429970E-02
6  5.0000000000000E-02  2.8801377676766E-02 -2.8726253818548E-02
7  6.0000000000000E-02  4.1311596218013E-02 -4.0879657202642E-02
8  7.0000000000000E-02  5.5970338844955E-02 -5.4869060576677E-02
9  8.0000000000000E-02  7.2716555462032E-02 -7.0517407357319E-02
10  9.0000000000000E-02  9.1481282587027E-02 -8.7627702323388E-02
11  1.0000000000000E-01  1.1218823370971E-01 -1.0598590947678E-01
12  1.1000000000000E-01  1.3475444058767E-01 -1.2536408840566E-01
13  1.2000000000000E-01  1.5909093608604E-01 -1.4552371894502E-01
14  1.3000000000000E-01  1.8510346863350E-01 -1.6621916095968E-01
15  1.4000000000000E-01  2.1269323799981E-01 -1.8720119396941E-01
16  1.5000000000000E-01  2.4175764190636E-01 -2.0822058012973E-01
17  1.6000000000000E-01  2.7219102296315E-01 -2.2903159379468E-01
18  1.7000000000000E-01  3.0388540558465E-01 -2.4939546152471E-01
19  1.8000000000000E-01  3.3673121286936E-01 -2.6908365795344E-01
20  1.9000000000000E-01  3.7061795392782E-01 -2.8788100536669E-01
21  2.0000000000000E-01  4.0543487280306E-01 -3.0558852813612E-01
22  2.1000000000000E-01  4.4107155093445E-01 -3.2202601723542E-01
23  2.2000000000000E-01  4.7741845605605E-01 -3.3703426488155E-01
24  2.3000000000000E-01  5.1436743147842E-01 -3.5047693481057E-01
25  2.4000000000000E-01  5.5181212085984E-01 -3.6224203972637E-01
26  2.5000000000000E-01  5.8964832480802E-01 -3.7224300395396E-01
27  2.6000000000000E-01  6.2777428694711E-01 -3.8041929618035E-01
28  2.7000000000000E-01  6.6609090841223E-01 -3.8673662426357E-01
29  2.8000000000000E-01  7.0450189107395E-01 -3.9118669131793E-01
30  2.9000000000000E-01  7.4291381112281E-01 -3.9378651952287E-01
31  3.0000000000000E-01  7.8123612593719E-01 -3.9457735523414E-01
32  3.1000000000000E-01  8.1938111839294E-01 -3.9362317588407E-01
33  3.2000000000000E-01  8.5726378392882E-01 -3.9100882572598E-01
34  3.3000000000000E-01  8.9480166673702E-01 -3.8683781360094E-01
35  3.4000000000000E-01  9.3191465238449E-01 -3.8122981147940E-01
36  3.5000000000000E-01  9.6852472497107E-01 -3.7431789746521E-01
37  3.6000000000000E-01  1.0045556975801E+00 -3.6624559116177E-01
38  3.7000000000000E-01  1.0399329252648E+00 -3.5716373272021E-01
39  3.8000000000000E-01  1.0745830101275E+00 -3.4722725946058E-01
40  3.9000000000000E-01  1.1084335081893E+00 -3.3659193563380E-01
41  4.0000000000000E-01  1.1414126476987E+00 -3.2541109164875E-01
42  4.1000000000000E-01  1.1734490683060E+00 -3.1383242890886E-01
43  4.2000000000000E-01  1.2044715901239E+00 -3.0199494529006E-01
44  4.3000000000000E-01  1.2344090211190E+00 -2.9002603426332E-01
45  4.4000000000000E-01  1.2631900105390E+00 -2.7803880775246E-01
46  4.5000000000000E-01  1.2907429551902E+00 -2.6612968907030E-01
47  4.6000000000000E-01  1.3169959643534E+00 -2.5437631775271E-01
48  4.7000000000000E-01  1.3418768879830E+00 -2.4283580288725E-01
49  4.8000000000000E-01  1.3653134115872E+00 -2.3154335569495E-01
50  4.9000000000000E-01  1.3872332198692E+00 -2.2051132576897E-01
51  5.0000000000000E-01  1.4075642298303E+00 -2.0972865860545E-01
52  5.1000000000000E-01  1.4262348926300E+00 -1.9916078499500E-01
53  5.2000000000000E-01  1.4431745620869E+00 -1.8874994559327E-01
54  5.3000000000000E-01  1.4583139263076E+00 -1.7841594667875E-01
55  5.4000000000000E-01  1.4715854975846E+00 -1.6805733585685E-01
56  5.5000000000000E-01  1.4829241544216E+00 -1.5755297940316E-01
57  5.6000000000000E-01  1.4922677283563E+00 -1.4676401617472E-01
58  5.7000000000000E-01  1.4995576271760E+00 -1.3553615666967E-01
59  5.8000000000000E-01  1.5047394851796E+00 -1.2370228999010E-01
60  5.9000000000000E-01  1.5077638303520E+00 -1.1108535625955E-01
61  6.0000000000000E-01  1.5085867576938E+00 -9.7501437552498E-02
62  6.1000000000000E-01  1.5071705975103E+00 -8.2763016686099E-02
63  6.2000000000000E-01  1.5034845672114E+00 -6.6682350367397E-02
64  6.3000000000000E-01  1.4975053951197E+00 -4.9074901230351E-02
65  6.4000000000000E-01  1.4892179049301E+00 -2.9762772272101E-02
66  6.5000000000000E-01  1.4786155498086E+00 -8.5780871231796E-03
67  6.6000000000000E-01  1.4657008856590E+00  1.4633739534915E-02
68  6.7000000000000E-01  1.4504859738128E+00  4.0010895274091E-02
69  6.8000000000000E-01  1.4329927043090E+00  6.7672278089830E-02
70  6.9000000000000E-01  1.4132530319974E+00  9.7714866992799E-02
71  7.0000000000000E-01  1.3913091189226E+00  1.3021139818814E-01
72  7.1000000000000E-01  1.3672133777897E+00  1.6520838489272E-01
73  7.2000000000000E-01  1.3410284127713E+00  2.0272451308446E-01
74  7.3000000000000E-01  1.3128268554515E+00  2.4274943918174E-01
75  7.4000000000000E-01  1.2826910952989E+00  2.8524300892203E-01
76  7.5000000000000E-01  1.2507129056897E+00  3.3013490966259E-01
77  7.6000000000000E-01  1.2169929681301E+00  3.7732476108548E-01
78  7.7000000000000E-01  1.1816402989408E+00  4.2668264197847E-01
79  7.8000000000000E-01  1.1447715842186E+00  4.7805004350957E-01
80  7.9000000000000E-01  1.1065104303723E+00  5.3124123234265E-01
81  8.0000000000000E-01  1.0669865389082E+00  5.8604500017832E-01
82  8.1000000000000E-01  1.0263348153858E+00  6.4222676996555E-01
83  8.2000000000000E-01  9.8469442356576E-01  6.9953102322870E-01
84  8.3000000000000E-01  9.4220779670393E-01  7.5768400779180E-01
85  8.4000000000000E-01  8.9901961868362E-01  8.1639668075204E-01
86  8.5000000000000E-01  8.5527578822530E-01  8.7536783793396E-01
87  8.6000000000000E-01  8.1112237974039E-01  9.3428737831278E-01
88  8.7000000000000E-01  7.6670461450771E-01  9.9283965008038E-01
89  8.8000000000000E-01  7.2216585573838E-01  1.0507068241737E+00
90  8.9000000000000E-01  6.7764664075847E-01  1.1075722412154E+00
91  9.0000000000000E-01  6.3328376298146E-01  1.1631236789276E+00
92  9.1000000000000E-01  5.8920941557204E-01  1.2170564891614E+00
93  9.2000000000000E-01  5.4555040772803E-01  1.2690765566992E+00
94  9.3000000000000E-01  5.0242746334365E-01  1.3189030358964E+00
95  9.4000000000000E-01  4.5995461048004E-01  1.3662708259544E+00
96  9.5000000000000E-01  4.1823866857885E-01  1.4109327510953E+00
97  9.6000000000000E-01  3.7737883873319E-01  1.4526614180425E+00
98  9.7000000000000E-01  3.3746640060231E-01  1.4912507298880E+00
99  9.8000000000000E-01  2.9858451774813E-01  1.5265170425522E+00
100  9.9000000000000E-01  2.6080815131026E-01  1.5582999574713E+00
101  1.0000000000000E+00  2.2420408005148E-01  1.5864627517669E+00
102  1.0100000000000E+00  1.8883102292696E-01  1.6108924548175E+00
103  1.0200000000000E+00  1.5473985848643E-01  1.6314995877243E+00
104  1.0300000000000E+00  1.2197393364042E-01  1.6482175895163E+00
105  1.0400000000000E+00  9.0569452638328E-02  1.6610019609059E+00
106  1.0500000000000E+00  6.0555935546007E-02  1.6698291628779E+00
107  1.0600000000000E+00  3.1956734099902E-02  1.6746953132187E+00
108  1.0700000000000E+00  4.7895915843244E-03  1.6756147291346E+00
109  1.0800000000000E+00 -2.0932767653817E-02  1.6726183682654E+00
110  1.0900000000000E+00 -4.5202034242337E-02  1.6657522235291E+00
111  1.1000000000000E+00 -6.8013711121476E-02  1.6550757292399E+00
112  1.1100000000000E+00 -8.9366528221337E-02  1.6406602367183E+00
113  1.1200000000000E+00 -1.0926189052543E-01  1.6225876170655E+00
114  1.1300000000000E+00 -1.2770337526976E-01  1.6009490468041E+00
115  1.1400000000000E+00 -1.4469629341690E-01  1.5758440286448E+00
116  1.1500000000000E+00 -1.6024732959682E-01  1.5473796945978E+00
117  1.1600000000000E+00 -1.7436427342362E-01  1.5156704320134E+00
118  1.1700000000000E+00 -1.8705585344574E-01  1.4808378647481E+00
119  1.1800000000000E+00 -1.9833168298121E-01  1.4430112115676E+00
120  1.1900000000000E+00 -2.0820232468830E-01  1.4023280319295E+00
121  1.2000000000000E+00 -2.1667947793731E-01  1.3589353554814E+00
122  1.2100000000000E+00 -2.2377628985828E-01  1.3129911758654E+00
123  1.2200000000000E+00 -2.2950778731060E-01  1.2646662715825E+00
124  1.2300000000000E+00 -2.3389142298942E-01  1.2141462969204E+00
125  1.2400000000000E+00 -2.3694772435203E-01  1.1616340638120E+00
126  1.2500000000000E+00 -2.3870102907551E-01  1.1073519112766E+00
127  1.2600000000000E+00 -2.3918028527947E-01  1.0515440324897E+00
128  1.2700000000000E+00 -2.3841988871586E-01  9.9447860030550E-01
129  1.2800000000000E+00 -2.3646052258040E-01  9.3644950042611E-01
130  1.2900000000000E+00 -2.3334995844182E-01  8.7777744691539E-01
131  1.3000000000000E+00 -2.2914376898038E-01  8.1881021725078E-01
132  1.3100000000000E+00 -2.2390589477866E-01  7.5992170361668E-01
133  1.3200000000000E+00 -2.1770899824466E-01  7.0150943334668E-01
134  1.3300000000000E+00 -2.1063452775745E-01  6.4399016380919E-01