Ho    ONCVPSP-4.0.1  r_core=   2.00759   1.60898   1.90236   1.40216
67.0000     21.0000      241206    zatom,zion,pspd
8      11   3     4   600     0    pspcod,pspxc,lmax,lloc,mmax,r2well
5.99000000  4.00000000  0.00000000    rchrg fchrg qchrg
2     2     2     2     0    nproj
1     1           extension_switch
0                         7.4089170378395E+00  9.9649388446711E-01
1  0.0000000000000E+00  7.0962402620722E-11 -2.0125769106816E-10
2  1.0000000000000E-02  4.2140600821189E-02 -4.4335537405484E-03
3  2.0000000000000E-02  8.4256823980749E-02 -8.8933792953826E-03
4  3.0000000000000E-02  1.2632412905831E-01 -1.3405247442807E-02
5  4.0000000000000E-02  1.6831765208764E-01 -1.7993932201489E-02
6  5.0000000000000E-02  2.1021204869456E-01 -2.2682725680037E-02
7  6.0000000000000E-02  2.5198134307744E-01 -2.7492968658294E-02
8  7.0000000000000E-02  2.9359878469379E-01 -3.2443601906401E-02
9  8.0000000000000E-02  3.3503671444581E-01 -3.7550743046443E-02
10  9.0000000000000E-02  3.7626644206996E-01 -4.2827293513446E-02
11  1.0000000000000E-01  4.1725813633230E-01 -4.8282579879616E-02
12  1.1000000000000E-01  4.5798072951279E-01 -5.3922033470815E-02
13  1.2000000000000E-01  4.9840183752923E-01 -5.9746911830200E-02
14  1.3000000000000E-01  5.3848769690628E-01 -6.5754065174207E-02
15  1.4000000000000E-01  5.7820311963756E-01 -7.1935750544226E-02
16  1.5000000000000E-01  6.1751146682189E-01 -7.8279495887436E-02
17  1.6000000000000E-01  6.5637464177788E-01 -8.4768015806695E-02
18  1.7000000000000E-01  6.9475310315786E-01 -9.1379180206483E-02
19  1.8000000000000E-01  7.3260589839217E-01 -9.8086036534592E-02
20  1.9000000000000E-01  7.6989071760144E-01 -1.0485688578230E-01
21  2.0000000000000E-01  8.0656396791809E-01 -1.1165541186433E-01
22  2.1000000000000E-01  8.4258086796158E-01 -1.1844086345875E-01
23  2.2000000000000E-01  8.7789556201580E-01 -1.2516828685195E-01
24  2.3000000000000E-01  9.1246125326393E-01 -1.3178880780947E-01
25  2.4000000000000E-01  9.4623035524745E-01 -1.3824995998460E-01
26  2.5000000000000E-01  9.7915466053347E-01 -1.4449605689006E-01
27  2.6000000000000E-01  1.0111855254000E+00 -1.5046860399576E-01
28  2.7000000000000E-01  1.0422740691836E+00 -1.5610674708528E-01
29  2.8000000000000E-01  1.0723713867803E+00 -1.6134775260754E-01
30  2.9000000000000E-01  1.1014287726490E+00 -1.6612751540361E-01
31  3.0000000000000E-01  1.1293979545387E+00 -1.7038108887519E-01
32  3.1000000000000E-01  1.1562313350501E+00 -1.7404323239442E-01
33  3.2000000000000E-01  1.1818822390448E+00 -1.7704897053786E-01
34  3.3000000000000E-01  1.2063051648374E+00 -1.7933415856278E-01
35  3.4000000000000E-01  1.2294560370471E+00 -1.8083604843470E-01
36  3.5000000000000E-01  1.2512924589415E+00 -1.8149384966156E-01
37  3.6000000000000E-01  1.2717739620874E+00 -1.8124927919484E-01
38  3.7000000000000E-01  1.2908622511187E+00 -1.8004709472117E-01
39  3.8000000000000E-01  1.3085214414516E+00 -1.7783560578947E-01
40  3.9000000000000E-01  1.3247182878179E+00 -1.7456715739894E-01
41  4.0000000000000E-01  1.3394224015426E+00 -1.7019858091030E-01
42  4.1000000000000E-01  1.3526064545741E+00 -1.6469160743545E-01
43  4.2000000000000E-01  1.3642463683720E+00 -1.5801323920712E-01
44  4.3000000000000E-01  1.3743214858737E+00 -1.5013607482698E-01
45  4.4000000000000E-01  1.3828147248961E+00 -1.4103858473531E-01
46  4.5000000000000E-01  1.3897127114791E+00 -1.3070533373349E-01
47  4.6000000000000E-01  1.3950058918434E+00 -1.1912714791793E-01
48  4.7000000000000E-01  1.3986886218159E+00 -1.0630122394656E-01
49  4.8000000000000E-01  1.4007592327680E+00 -9.2231179150048E-02
50  4.9000000000000E-01  1.4012200733153E+00 -7.6927041615556E-02
51  5.0000000000000E-01  1.4000775262400E+00 -6.0405180003562E-02
52  5.1000000000000E-01  1.3973420003161E+00 -4.2688173503065E-02
53  5.2000000000000E-01  1.3930278969416E+00 -2.3804622980162E-02
54  5.3000000000000E-01  1.3871535517097E+00 -3.7889050228845E-03
55  5.4000000000000E-01  1.3797411512786E+00  1.7319128774833E-02
56  5.5000000000000E-01  1.3708166261279E+00  3.9474504322822E-02
57  5.6000000000000E-01  1.3604095200093E+00  6.2627525767938E-02
58  5.7000000000000E-01  1.3485528371225E+00  8.6724220306968E-02
59  5.8000000000000E-01  1.3352828682520E+00  1.1170682239634E-01
60  5.9000000000000E-01  1.3206389973034E+00  1.3751429217812E-01
61  6.0000000000000E-01  1.3046634898673E+00  1.6408286249224E-01
62  6.1000000000000E-01  1.2874012656099E+00  1.9134660844707E-01
63  6.2000000000000E-01  1.2688996564516E+00  2.1923803318199E-01
64  6.3000000000000E-01  1.2492081526360E+00  2.4768866317954E-01
65  6.4000000000000E-01  1.2283781389145E+00  2.7662964627486E-01
66  6.5000000000000E-01  1.2064626231746E+00  3.0599234537188E-01
67  6.6000000000000E-01  1.1835159599233E+00  3.3570892080936E-01
68  6.7000000000000E-01  1.1595935710948E+00  3.6571289432996E-01
69  6.8000000000000E-01  1.1347516666895E+00  3.9593968769144E-01
70  6.9000000000000E-01  1.1090469677655E+00  4.2632712912283E-01
71  7.0000000000000E-01  1.0825364342893E+00  4.5681592106930E-01
72  7.1000000000000E-01  1.0552770003232E+00  4.8735006298664E-01
73  7.2000000000000E-01  1.0273253189625E+00  5.1787722333799E-01
74  7.3000000000000E-01  9.9873751935805E-01  5.4834905540991E-01
75  7.4000000000000E-01  9.6956897805093E-01  5.7872145209763E-01
76  7.5000000000000E-01  9.3987410672006E-01  6.0895473540815E-01
77  7.6000000000000E-01  9.0970615829422E-01  6.3901377708846E-01
78  7.7000000000000E-01  8.7911705320959E-01  6.6886804750096E-01
79  7.8000000000000E-01  8.4815722740641E-01  6.9849159063214E-01
80  7.9000000000000E-01  8.1687550345148E-01  7.2786292392818E-01
81  8.0000000000000E-01  7.8531898595148E-01  7.5696486249536E-01
82  8.1000000000000E-01  7.5353298218526E-01  7.8578426807702E-01
83  8.2000000000000E-01  7.2156094863429E-01  8.1431172411480E-01
84  8.3000000000000E-01  6.8944446383063E-01  8.4254113911187E-01
85  8.4000000000000E-01  6.5722322767298E-01  8.7046928143357E-01
86  8.5000000000000E-01  6.2493508708627E-01  8.9809524959572E-01
87  8.6000000000000E-01  5.9261608761946E-01  9.2541988299806E-01
88  8.7000000000000E-01  5.6030055029332E-01  9.5244511894879E-01
89  8.8000000000000E-01  5.2802117272584E-01  9.7917330269094E-01
90  8.9000000000000E-01  4.9580915327949E-01  1.0056064579727E+00
91  9.0000000000000E-01  4.6369433669471E-01  1.0317455264947E+00
92  9.1000000000000E-01  4.3170537939847E-01  1.0575895853124E+00
93  9.2000000000000E-01  3.9986993240793E-01  1.0831350519599E+00
94  9.3000000000000E-01  3.6821483948904E-01  1.1083748876903E+00
95  9.4000000000000E-01  3.3676634797976E-01  1.1332978097888E+00
96  9.5000000000000E-01  3.0555032944943E-01  1.1578875243996E+00
97  9.6000000000000E-01  2.7459250714126E-01  1.1821219917147E+00
98  9.7000000000000E-01  2.4391868693609E-01  1.2059727356904E+00
99  9.8000000000000E-01  2.1355498838383E-01  1.2294042106863E+00
100  9.9000000000000E-01  1.8352807217643E-01  1.2523732375445E+00
101  1.0000000000000E+00  1.5386536028526E-01  1.2748285216549E+00
102  1.0100000000000E+00  1.2459524485770E-01  1.2967102654558E+00
103  1.0200000000000E+00  9.5747281866080E-02  1.3179498876146E+00
104  1.0300000000000E+00  6.7352365428616E-02  1.3384698607947E+00
105  1.0400000000000E+00  3.9442878679925E-02  1.3581836794413E+00
106  1.0500000000000E+00  1.2052817061855E-02  1.3769959684024E+00
107  1.0600000000000E+00 -1.4782120063365E-02  1.3948027424265E+00
108  1.0700000000000E+00 -4.1024473501321E-02  1.4114918256374E+00
109  1.0800000000000E+00 -6.6635007916588E-02  1.4269434389599E+00
110  1.0900000000000E+00 -9.1572738853761E-02  1.4410309621539E+00
111  1.1000000000000E+00 -1.1579500658147E-01  1.4536218755779E+00
112  1.1100000000000E+00 -1.3925759995259E-01  1.4645788850334E+00
113  1.1200000000000E+00 -1.6191493310200E-01  1.4737612310289E+00
114  1.1300000000000E+00 -1.8372027734809E-01  1.4810261814918E+00
115  1.1400000000000E+00 -2.0462605012162E-01  1.4862307043699E+00
116  1.1500000000000E+00 -2.2458416209853E-01  1.4892333136157E+00
117  1.1600000000000E+00 -2.4354642296089E-01  1.4898960787651E+00
118  1.1700000000000E+00 -2.6146500532811E-01  1.4880867846188E+00
119  1.1800000000000E+00 -2.7829296539112E-01  1.4836812234187E+00
120  1.1900000000000E+00 -2.9398481761691E-01  1.4765655973089E+00
121  1.2000000000000E+00 -3.0849715956721E-01  1.4666390037609E+00
122  1.2100000000000E+00 -3.2178934137389E-01  1.4538159709824E+00
123  1.2200000000000E+00 -3.3382417270993E-01  1.4380290040313E+00
124  1.2300000000000E+00 -3.4456865819668E-01  1.4192310954591E+00
125  1.2400000000000E+00 -3.5399475003977E-01  1.3973981466303E+00
126  1.2500000000000E+00 -3.6208010430667E-01  1.3725312374803E+00
127  1.2600000000000E+00 -3.6880882461066E-01  1.3446586732538E+00
128  1.2700000000000E+00 -3.7417217401675E-01  1.3138377266208E+00
129  1.2800000000000E+00 -3.7816923274762E-01  1.2801559825418E+00
130  1.2900000000000E+00 -3.8080747569224E-01  1.2437321811810E+00
131  1.3000000000000E+00 -3.8210323978272E-01  1.2047164409867E+00
132  1.3100000000000E+00 -3.8208204700890E-01  1.1632897297766E+00
133  1.3200000000000E+00 -3.8077874414753E-01  1.1196624361658E+00
134  1.3300000000000E+00 -3.7823741514105E-01  1.0740718767865E+00
135  1.3400000000000E+00 -3.7451101649582E-01  1.0267785565654E+00
136  1.3500000000000E+00 -3.6966068003239E-01  9.7806097968236E-01
137  1.3600000000000E+00 -3.6375462075586E-01  9.2820878756090E-01
138  1.3700000000000E+00 -3.5686658053731E-01  8.7751397738555E-01
139  1.3800000000000E+00 -3.4907373001851E-01  8.2625992624711E-01
140  1.3900000000000E+00 -3.4045394253056E-01  7.7470791851407E-01
141  1.4000000000000E+00 -3.3108238716196E-01  7.2308108734295E-01
142  1.4100000000000E+00 -3.2102737840670E-01  6.7154568403231E-01
143  1.4200000000000E+00 -3.1035139060264E-01  6.2022435706586E-01
144  1.4300000000000E+00 -2.9911707705308E-01  5.6923629605107E-01
145  1.4400000000000E+00 -2.8738837266065E-01  5.1870495083199E-01
146  1.4500000000000E+00 -2.7523017721681E-01  4.6875699700739E-01
147  1.4600000000000E+00 -2.6270806499081E-01  4.1952150624826E-01
148  1.4700000000000E+00 -2.4988797466572E-01  3.7112903464808E-01
149  1.4800000000000E+00 -2.3683588799856E-01  3.2371067345501E-01
150  1.4900000000000E+00 -2.2361749947135E-01  2.7739706844677E-01
151  1.5000000000000E+00 -2.1029787963898E-01  2.3231741653569E-01
152  1.5100000000000E+00 -1.9694113498239E-01  1.8859844852033E-01
153  1.5200000000000E+00 -1.8361006719020E-01  1.4636340734207E-01
154  1.5300000000000E+00 -1.7036583482142E-01  1.0573103125721E-01
155  1.5400000000000E+00 -1.5726762034746E-01  6.6814551530162E-02
156  1.5500000000000E+00 -1.4437230557669E-01  2.9720714287312E-02
157  1.5600000000000E+00 -1.3173415842677E-01 -5.4511639546615E-03
158  1.5700000000000E+00 -1.1940453395197E-01 -3.8610097744749E-02
159  1.5800000000000E+00 -1.0743159245961E-01 -6.9674281999761E-02
160  1.5900000000000E+00 -9.5860037382552E-02 -9.8571880616215E-02
161  1.6000000000000E+00 -8.4730875679869E-02 -1.2524174515991E-01
162  1.6100000000000E+00 -7.4081202580615E-02 -1.4963405856911E-01
163  1.6200000000000E+00 -6.3944013810875E-02 -1.7171089241787E-01
164  1.6300000000000E+00 -5.4348046343972E-02 -1.9144667565678E-01
165  1.6400000000000E+00 -4.5317649984785E-02 -2.0882856654786E-01
166  1.6500000000000E+00 -3.6872691072753E-02 -2.2385672387720E-01
167  1.6600000000000E+00 -2.9028489531399E-02 -2.3654447339787E-01
168  1.6700000000000E+00 -2.1795790170105E-02 -2.4691836653127E-01
169  1.6800000000000E+00 -1.5180768861481E-02 -2.5501812923756E-01
170  1.6900000000000E+00 -9.1850738755355E-03 -2.6089650009961E-01
171  1.7000000000000E+00 -3.8059023502695E-03 -2.6461895761437E-01
172  1.7100000000000E+00  9.6388843112764E-04 -2.6626333766956E-01
173  1.7200000000000E+00  5.1356356343039E-03 -2.6591934333224E-01
174  1.7300000000000E+00  8.7246923009870E-03 -2.6368794995652E-01
175  1.7400000000000E+00  1.1750216913705E-02 -2.5968070975134E-01
176  1.7500000000000E+00  1.4234932669099E-02 -2.5401896077652E-01
177  1.7600000000000E+00  1.6204858342643E-02 -2.4683294636208E-01
178  1.7700000000000E+00  1.7689012897246E-02 -2.3826085181141E-01
179  1.7800000000000E+00  1.8719096224775E-02 -2.2844776599626E-01
180  1.7900000000000E+00  1.9329148657190E-02 -2.1754457626433E-01
181  1.8000000000000E+00  1.9555192101763E-02 -2.0570680578629E-01
182  1.8100000000000E+00  1.9434855811338E-02 -1.9309340295364E-01
183  1.8200000000000E+00  1.9006989988760E-02 -1.7986549307017E-01
184  1.8300000000000E+00  1.8311270530139E-02 -1.6618510290380E-01
185  1.8400000000000E+00  1.7387798326008E-02 -1.5221386904789E-01
186  1.8500000000000E+00  1.6276696611426E-02 -1.3811174127693E-01
187  1.8600000000000E+00  1.5017709832493E-02 -1.2403569197206E-01
188  1.8700000000000E+00  1.3649808202522E-02 -1.1013844475819E-01
189  1.8800000000000E+00  1.2210796921674E-02 -9.6567221075554E-02
190  1.8900000000000E+00  1.0736946135432E-02 -8.3462550507449E-02
191  1.9000000000000E+00  9.2626377032370E-03 -7.0957134429892E-02
192  1.9100000000000E+00  7.8197657994448E-03 -5.9174048388424E-02
193  1.9200000000000E+00  6.4361003259088E-03 -4.8222010408611E-02
194  1.9300000000000E+00  5.1380725762703E-03 -3.8202957047412E-02
195  1.9400000000000E+00  3.9504061866424E-03 -2.9211000548628E-02
196  1.9500000000000E+00  2.8940661272163E-03 -2.1326704184056E-02
197  1.9600000000000E+00  1.9863525106296E-03 -1.4617226529355E-02
198  1.9700000000000E+00  1.2406886294575E-03 -9.1356569314491E-03
199  1.9800000000000E+00  6.6673172326757E-04 -4.9224412558156E-03
200  1.9900000000000E+00  2.6737182691331E-04 -1.9830681292930E-03
201  2.0000000000000E+00  5.4066004610800E-05 -4.0384400470962E-04
202  2.0100000000000E+00 -4.8301634213500E-06  3.6256732236593E-05
203  2.0200000000000E+00  2.3169911191768E-07 -1.7327482050514E-06
204  2.03  0. -0.
205  2.04 -0.  0.
206  2.05 -0. -0.
207  2.06  0.  0.
208  2.07  0.  0.
209  2.08  0.  0.
210  2.09  0.  0.
211  2.10  0.  0.
212  2.11  0.  0.
213  2.12  0.  0.
214  2.13  0.  0.
215  2.14  0.  0.
216  2.15  0.  0.
217  2.16  0.  0.
218  2.17  0.  0.
219  2.18  0.  0.
220  2.19  0.  0.
221  2.20  0.  0.
222  2.21  0.  0.
223  2.22  0.  0.
224  2.23  0.  0.
225  2.24  0.  0.
226  2.25  0.  0.
227  2.26  0.  0.
228  2.27  0.  0.
229  2.28  0.  0.
230  2.29  0.  0.
231  2.30  0.  0.
232  2.31  0.  0.
233  2.32  0.  0.
234  2.33  0.  0.
235  2.34  0.  0.
236  2.35  0.  0.
237  2.36  0.  0.
238  2.37  0.  0.
239  2.38  0.  0.
240  2.39  0.  0.
241  2.40  0.  0.
242  2.41  0.  0.
243  2.42  0.  0.
244  2.43  0.  0.
245  2.44  0.  0.
246  2.45  0.  0.
247  2.46  0.  0.
248  2.47  0.  0.
249  2.48  0.  0.
250  2.49  0.  0.
251  2.50  0.  0.
252  2.51  0.  0.
253  2.52  0.  0.
254  2.53  0.  0.
255  2.54  0.  0.
256  2.55  0.  0.
257  2.56  0.  0.
258  2.57  0.  0.
259  2.58  0.  0.
260  2.59  0.  0.
261  2.60  0.  0.
262  2.61  0.  0.
263  2.62  0.  0.
264  2.63  0.  0.
265  2.64  0.  0.
266  2.65  0.  0.
267  2.66  0.  0.
268  2.67  0.  0.
269  2.68  0.  0.
270  2.69  0.  0.
271  2.70  0.  0.
272  2.71  0.  0.
273  2.72  0.  0.
274  2.73  0.  0.
275  2.74  0.  0.
276  2.75  0.  0.
277  2.76  0.  0.
278  2.77  0.  0.
279  2.78  0.  0.
280  2.79  0.  0.
281  2.80  0.  0.
282  2.81  0.  0.
283  2.82  0.  0.
284  2.83  0.  0.
285  2.84  0.  0.
286  2.85  0.  0.
287  2.86  0.  0.
288  2.87  0.  0.
289  2.88  0.  0.
290  2.89  0.  0.
291  2.90  0.  0.
292  2.91  0.  0.
293  2.92  0.  0.
294  2.93  0.  0.
295  2.94  0.  0.
296  2.95  0.  0.
297  2.96  0.  0.
298  2.97  0.  0.
299  2.98  0.  0.
300  2.99  0.  0.
301  3.00  0.  0.
302  3.01  0.  0.
303  3.02  0.  0.
304  3.03  0.  0.
305  3.04  0.  0.
306  3.05  0.  0.
307  3.06  0.  0.
308  3.07  0.  0.
309  3.08  0.  0.
310  3.09  0.  0.
311  3.10  0.  0.
312  3.11  0.  0.
313  3.12  0.  0.
314  3.13  0.  0.
315  3.14  0.  0.
316  3.15  0.  0.
317  3.16  0.  0.
318  3.17  0.  0.
319  3.18  0.  0.
320  3.19  0.  0.
321  3.20  0.  0.
322  3.21  0.  0.
323  3.22  0.  0.
324  3.23  0.  0.
325  3.24  0.  0.
326  3.25  0.  0.
327  3.26  0.  0.
328  3.27  0.  0.
329  3.28  0.  0.
330  3.29  0.  0.
331  3.30  0.  0.
332  3.31  0.  0.
333  3.32  0.  0.
334  3.33  0.  0.
335  3.34  0.  0.
336  3.35  0.  0.
337  3.36  0.  0.
338  3.37  0.  0.
339  3.38  0.  0.
340  3.39  0.  0.
341  3.40  0.  0.
342  3.41  0.  0.
343  3.42  0.  0.
344  3.43  0.  0.
345  3.44  0.  0.
346  3.45  0.  0.
347  3.46  0.  0.
348  3.47  0.  0.
349  3.48  0.  0.
350  3.49  0.  0.
351  3.50  0.  0.
352  3.51  0.  0.
353  3.52  0.  0.
354  3.53  0.  0.
355  3.54  0.  0.
356  3.55  0.  0.
357  3.56  0.  0.
358  3.57  0.  0.
359  3.58  0.  0.
360  3.59  0.  0.
361  3.60  0.  0.
362  3.61  0.  0.
363  3.62  0.  0.
364  3.63  0.  0.
365  3.64  0.  0.
366  3.65  0.  0.
367  3.66  0.  0.
368  3.67  0.  0.
369  3.68  0.  0.
370  3.69  0.  0.
371  3.70  0.  0.
372  3.71  0.  0.
373  3.72  0.  0.
374  3.73  0.  0.
375  3.74  0.  0.
376  3.75  0.  0.
377  3.76  0.  0.
378  3.77  0.  0.
379  3.78  0.  0.
380  3.79  0.  0.
381  3.80  0.  0.
382  3.81  0.  0.
383  3.82  0.  0.
384  3.83  0.  0.
385  3.84  0.  0.
386  3.85  0.  0.
387  3.86  0.  0.
388  3.87  0.  0.
389  3.88  0.  0.
390  3.89  0.  0.
391  3.90  0.  0.
392  3.91  0.  0.
393  3.92  0.  0.
394  3.93  0.  0.
395  3.94  0.  0.
396  3.95  0.  0.
397  3.96  0.  0.
398  3.97  0.  0.
399  3.98  0.  0.
400  3.99  0.  0.
401  4.00  0.  0.
402  4.01  0.  0.
403  4.02  0.  0.
404  4.03  0.  0.
405  4.04  0.  0.
406  4.05  0.  0.
407  4.06  0.  0.
408  4.07  0.  0.
409  4.08  0.  0.
410  4.09  0.  0.
411  4.10  0.  0.
412  4.11  0.  0.
413  4.12  0.  0.
414  4.13  0.  0.
415  4.14  0.  0.
416  4.15  0.  0.
417  4.16  0.  0.
418  4.17  0.  0.
419  4.18  0.  0.
420  4.19  0.  0.
421  4.20  0.  0.
422  4.21  0.  0.
423  4.22  0.  0.
424  4.23  0.  0.
425  4.24  0.  0.
426  4.25  0.  0.
427  4.26  0.  0.
428  4.27  0.  0.
429  4.28  0.  0.
430  4.29  0.  0.
431  4.30  0.  0.
432  4.31  0.  0.
433  4.32  0.  0.
434  4.33  0.  0.
435  4.34  0.  0.
436  4.35  0.  0.
437  4.36  0.  0.
438  4.37  0.  0.
439  4.38  0.  0.
440  4.39  0.  0.
441  4.40  0.  0.
442  4.41  0.  0.
443  4.42  0.  0.
444  4.43  0.  0.
445  4.44  0.  0.
446  4.45  0.  0.
447  4.46  0.  0.
448  4.47  0.  0.
449  4.48  0.  0.
450  4.49  0.  0.
451  4.50  0.  0.
452  4.51  0.  0.
453  4.52  0.  0.
454  4.53  0.  0.
455  4.54  0.  0.
456  4.55  0.  0.
457  4.56  0.  0.
458  4.57  0.  0.
459  4.58  0.  0.
460  4.59  0.  0.
461  4.60  0.  0.
462  4.61  0.  0.
463  4.62  0.  0.
464  4.63  0.  0.
465  4.64  0.  0.
466  4.65  0.  0.
467  4.66  0.  0.
468  4.67  0.  0.
469  4.68  0.  0.
470  4.69  0.  0.
471  4.70  0.  0.
472  4.71  0.  0.
473  4.72  0.  0.
474  4.73  0.  0.
475  4.74  0.  0.
476  4.75  0.  0.
477  4.76  0.  0.
478  4.77  0.  0.
479  4.78  0.  0.
480  4.79  0.  0.
481  4.80  0.  0.
482  4.81  0.  0.
483  4.82  0.  0.
484  4.83  0.  0.
485  4.84  0.  0.
486  4.85  0.  0.
487  4.86  0.  0.
488  4.87  0.  0.
489  4.88  0.  0.
490  4.89  0.  0.
491  4.90  0.  0.
492  4.91  0.  0.
493  4.92  0.  0.
494  4.93  0.  0.
495  4.94  0.  0.
496  4.95  0.  0.
497  4.96  0.  0.
498  4.97  0.  0.
499  4.98  0.  0.
500  4.99  0.  0.
501  5.00  0.  0.
502  5.01  0.  0.
503  5.02  0.  0.
504  5.03  0.  0.
505  5.04  0.  0.
506  5.05  0.  0.
507  5.06  0.  0.
508  5.07  0.  0.
509  5.08  0.  0.
510  5.09  0.  0.
511  5.10  0.  0.
512  5.11  0.  0.
513  5.12  0.  0.
514  5.13  0.  0.
515  5.14  0.  0.
516  5.15  0.  0.
517  5.16  0.  0.
518  5.17  0.  0.
519  5.18  0.  0.
520  5.19  0.  0.
521  5.20  0.  0.
522  5.21  0.  0.
523  5.22  0.  0.
524  5.23  0.  0.
525  5.24  0.  0.
526  5.25  0.  0.
527  5.26  0.  0.
528  5.27  0.  0.
529  5.28  0.  0.
530  5.29  0.  0.
531  5.30  0.  0.
532  5.31  0.  0.
533  5.32  0.  0.
534  5.33  0.  0.
535  5.34  0.  0.
536  5.35  0.  0.
537  5.36  0.  0.
538  5.37  0.  0.
539  5.38  0.  0.
540  5.39  0.  0.
541  5.40  0.  0.
542  5.41  0.  0.
543  5.42  0.  0.
544  5.43  0.  0.
545  5.44  0.  0.
546  5.45  0.  0.
547  5.46  0.  0.
548  5.47  0.  0.
549  5.48  0.  0.
550  5.49  0.  0.
551  5.50  0.  0.
552  5.51  0.  0.
553  5.52  0.  0.
554  5.53  0.  0.
555  5.54  0.  0.
556  5.55  0.  0.
557  5.56  0.  0.
558  5.57  0.  0.
559  5.58  0.  0.
560  5.59  0.  0.
561  5.60  0.  0.
562  5.61  0.  0.
563  5.62  0.  0.
564  5.63  0.  0.
565  5.64  0.  0.
566  5.65  0.  0.
567  5.66  0.  0.
568  5.67  0.  0.
569  5.68  0.  0.
570  5.69  0.  0.
571  5.70  0.  0.
572  5.71  0.  0.
573  5.72  0.  0.
574  5.73  0.  0.
575  5.74  0.  0.
576  5.75  0.  0.
577  5.76  0.  0.
578  5.77  0.  0.
579  5.78  0.  0.
580  5.79  0.  0.
581  5.80  0.  0.
582  5.81  0.  0.
583  5.82  0.  0.
584  5.83  0.  0.
585  5.84  0.  0.
586  5.85  0.  0.
587  5.86  0.  0.
588  5.87  0.  0.
589  5.88  0.  0.
590  5.89  0.  0.
591  5.90  0.  0.
592  5.91  0.  0.
593  5.92  0.  0.
594  5.93  0.  0.
595  5.94  0.  0.
596  5.95  0.  0.
597  5.96  0.  0.
598  5.97  0.  0.
599  5.98  0.  0.
600  5.99  0.  0.
1                         6.4361044469533E+00  5.0726016295558E-01
1  0.0000000000000E+00  2.1065586081059E-09 -1.0592625138139E-08
2  1.0000000000000E-02  1.2228640345336E-03 -1.4953942002254E-03
3  2.0000000000000E-02  4.8850050564948E-03 -5.9595286547426E-03
4  3.0000000000000E-02  1.0967143901639E-02 -1.3326618244350E-02
5  4.0000000000000E-02  1.9437394344687E-02 -2.3488212721793E-02
6  5.0000000000000E-02  3.0251627421551E-02 -3.6294962847061E-02
7  6.0000000000000E-02  4.3353973056160E-02 -5.1559050767366E-02
8  7.0000000000000E-02  5.8677450744642E-02 -6.9057243296824E-02
9  8.0000000000000E-02  7.6144718943057E-02 -8.8534516158254E-02
10  9.0000000000000E-02  9.5668930879344E-02 -1.0970818754197E-01
11  1.0000000000000E-01  1.1715468279973E-01 -1.3227249068144E-01
12  1.1000000000000E-01  1.4049903919429E-01 -1.5590350769036E-01
13  1.2000000000000E-01  1.6559261835173E-01 -1.8026438077865E-01
14  1.3000000000000E-01  1.9232072069024E-01 -2.0501071227013E-01
15  1.4000000000000E-01  2.2056448171597E-01 -2.2979606166419E-01
16  1.5000000000000E-01  2.5020203118351E-01 -2.5427744637242E-01
17  1.6000000000000E-01  2.8110964007847E-01 -2.7812075274681E-01
18  1.7000000000000E-01  3.1316283741083E-01 -3.0100596560139E-01
19  1.8000000000000E-01  3.4623747949205E-01 -3.2263212758670E-01
20  1.9000000000000E-01  3.8021075535736E-01 -3.4272194445456E-01
21  2.0000000000000E-01  4.1496211327035E-01 -3.6102595836978E-01
22  2.1000000000000E-01  4.5037409478640E-01 -3.7732621888301E-01
23  2.2000000000000E-01  4.8633306462902E-01 -3.9143938984707E-01
24  2.3000000000000E-01  5.2272982661602E-01 -4.0321924029238E-01
25  2.4000000000000E-01  5.5946011802694E-01 -4.1255847790823E-01
26  2.5000000000000E-01  5.9642497708968E-01 -4.1938989512442E-01
27  2.6000000000000E-01  6.3353098064393E-01 -4.2368680965986E-01
28  2.7000000000000E-01  6.7069035146777E-01 -4.2546279359540E-01
29  2.8000000000000E-01  7.0782093718947E-01 -4.2477069733036E-01
30  2.9000000000000E-01  7.4484606510533E-01 -4.2170098698409E-01
31  3.0000000000000E-01  7.8169427954245E-01 -4.1637942569433E-01
32  3.1000000000000E-01  8.1829897060226E-01 -4.0896414064015E-01
33  3.2000000000000E-01  8.5459790515499E-01 -3.9964212827974E-01
34  3.3000000000000E-01  8.9053267279154E-01 -3.8862526005941E-01
35  3.4000000000000E-01  9.2604806104262E-01 -3.7614585954890E-01
36  3.5000000000000E-01  9.6109137551613E-01 -3.6245192943807E-01
37  3.6000000000000E-01  9.9561172165816E-01 -3.4780211296005E-01
38  3.7000000000000E-01  1.0295592655892E+00 -3.3246047897756E-01
39  3.8000000000000E-01  1.0628844918918E+00 -3.1669122309961E-01
40  3.9000000000000E-01  1.0955374763187E+00 -3.0075337872764E-01
41  4.0000000000000E-01  1.1274671911501E+00 -2.8489563183423E-01
42  4.1000000000000E-01  1.1586208603539E+00 -2.6935133155322E-01
43  4.2000000000000E-01  1.1889433808093E+00 -2.5433378533274E-01
44  4.3000000000000E-01  1.2183768246469E+00 -2.4003192252932E-01
45  4.4000000000000E-01  1.2468600362689E+00 -2.2660640398138E-01
46  4.5000000000000E-01  1.2743283358539E+00 -2.1418624740312E-01
47  4.6000000000000E-01  1.3007133391650E+00 -2.0286602951613E-01
48  4.7000000000000E-01  1.3259429012930E+00 -1.9270371583812E-01
49  4.8000000000000E-01  1.3499411896192E+00 -1.8371915814969E-01
50  4.9000000000000E-01  1.3726288888197E+00 -1.7589328804809E-01
51  5.0000000000000E-01  1.3939235381939E+00 -1.6916802287380E-01
52  5.1000000000000E-01  1.4137399990313E+00 -1.6344688787146E-01
53  5.2000000000000E-01  1.4319910471826E+00 -1.5859634593858E-01
54  5.3000000000000E-01  1.4485880835138E+00 -1.5444781394237E-01
55  5.4000000000000E-01  1.4634419525437E+00 -1.5080033256311E-01
56  5.5000000000000E-01  1.4764638573437E+00 -1.4742384516379E-01
57  5.6000000000000E-01  1.4875663567457E+00 -1.4406303049264E-01
58  5.7000000000000E-01  1.4966644291091E+00 -1.4044162428602E-01
59  5.8000000000000E-01  1.5036765853661E+00 -1.3626715622680E-01
60  5.9000000000000E-01  1.5085260128295E+00 -1.3123602138248E-01
61  6.0000000000000E-01  1.5111417303356E+00 -1.2503879932687E-01
62  6.1000000000000E-01  1.5114597347202E+00 -1.1736572974757E-01
63  6.2000000000000E-01  1.5094241184056E+00 -1.0791225053766E-01
64  6.3000000000000E-01  1.5049881380164E+00 -9.6384503215840E-02
65  6.4000000000000E-01  1.4981152144411E+00 -8.2504711036848E-02
66  6.5000000000000E-01  1.4887798456106E+00 -6.6016337337229E-02
67  6.6000000000000E-01  1.4769684144585E+00 -4.6688935472015E-02
68  6.7000000000000E-01  1.4626798760481E+00 -2.4322607070971E-02
69  6.8000000000000E-01  1.4459263096656E+00  1.2480078162656E-03
70  6.9000000000000E-01  1.4267333237636E+00  3.0150276928517E-02
71  7.0000000000000E-01  1.4051403039559E+00  6.2470717206534E-02
72  7.1000000000000E-01  1.3812004967768E+00  9.8252779837365E-02
73  7.2000000000000E-01  1.3549809245755E+00  1.3749531607857E-01
74  7.3000000000000E-01  1.3265621296850E+00  1.8015174908721E-01
75  7.4000000000000E-01  1.2960377488212E+00  2.2612996461847E-01
76  7.5000000000000E-01  1.2635139214978E+00  2.7529292088663E-01
77  7.6000000000000E-01  1.2291085390224E+00  3.2745996531985E-01
78  7.7000000000000E-01  1.1929503433300E+00  3.8240883362069E-01
79  7.8000000000000E-01  1.1551778874563E+00  4.3987829468297E-01
80  7.9000000000000E-01  1.1159383718155E+00  4.9957139373213E-01
81  8.0000000000000E-01  1.0753863725745E+00  5.6115923574949E-01
82  8.1000000000000E-01  1.0336824802812E+00  6.2428524199981E-01
83  8.2000000000000E-01  9.9099186845906E-01  6.8856980447291E-01
84  8.3000000000000E-01  9.4748281311140E-01  7.5361525642048E-01
85  8.4000000000000E-01  9.0332518494691E-01  8.1901107203995E-01
86  8.5000000000000E-01  8.5868893664108E-01  8.8433920482156E-01
87  8.6000000000000E-01  8.1374260756397E-01  9.4917947220006E-01
88  8.7000000000000E-01  7.6865186813691E-01  1.0131148939717E+00
89  8.8000000000000E-01  7.2357812532858E-01  1.0757368934586E+00
90  8.9000000000000E-01  6.7867720977567E-01  1.1366502735981E+00
91  9.0000000000000E-01  6.3409816363025E-01  1.1954778849496E+00
92  9.1000000000000E-01  5.8998214651888E-01  1.2518649089625E+00
93  9.2000000000000E-01  5.4646147497404E-01  1.3054826876182E+00
94  9.3000000000000E-01  5.0365880840168E-01  1.3560320396175E+00
95  9.4000000000000E-01  4.6168649211704E-01  1.4032460134607E+00
96  9.5000000000000E-01  4.2064606525748E-01  1.4468920388896E+00
97  9.6000000000000E-01  3.8062793851057E-01  1.4867734500197E+00
98  9.7000000000000E-01  3.4171124362723E-01  1.5227303658876E+00
99  9.8000000000000E-01  3.0396385367289E-01  1.5546399268355E+00
100  9.9000000000000E-01  2.6744256995406E-01  1.5824158979417E+00
101  1.0000000000000E+00  2.3219346859466E-01  1.6060076633351E+00
102  1.0100000000000E+00  1.9825239687724E-01  1.6253986474874E+00
103  1.0200000000000E+00  1.6564560675256E-01  1.6406042112260E+00
104  1.0300000000000E+00  1.3439051040693E-01  1.6516690810509E+00
105  1.0400000000000E+00  1.0449654050129E-01  1.6586643801445E+00
106  1.0500000000000E+00  7.5966095696948E-02  1.6616843380719E+00
107  1.0600000000000E+00  4.8795550396772E-02  1.6608427633905E+00
108  1.0700000000000E+00  2.2976306289168E-02  1.6562693690672E+00
109  1.0800000000000E+00 -1.5041376934553E-03  1.6481060446258E+00
110  1.0900000000000E+00 -2.4661120971678E-02  1.6365031711729E+00
111  1.1000000000000E+00 -4.6511786620014E-02  1.6216160758194E+00
112  1.1100000000000E+00 -6.7074100277223E-02  1.6036017204245E+00
113  1.1200000000000E+00 -8.6365945907175E-02  1.5826157160297E+00
114  1.1300000000000E+00 -1.0440432055168E-01  1.5588097487306E+00
115  1.1400000000000E+00 -1.2120464869900E-01  1.5323294951324E+00
116  1.1500000000000E+00 -1.3678023493479E-01  1.5033130958279E+00
117  1.1600000000000E+00 -1.5114187118474E-01  1.4718902436923E+00
118  1.1700000000000E+00 -1.6429761206815E-01  1.4381819300485E+00
119  1.1800000000000E+00 -1.7625272871161E-01  1.4023008761498E+00
120  1.1900000000000E+00 -1.8700984778755E-01  1.3643526597844E+00
121  1.2000000000000E+00 -1.9656927858593E-01  1.3244375273143E+00
122  1.2100000000000E+00 -2.0492952659198E-01  1.2826528600860E+00
123  1.2200000000000E+00 -2.1208798731260E-01  1.2390962407987E+00
124  1.2300000000000E+00 -2.1804180903226E-01  1.1938690404023E+00
125  1.2400000000000E+00 -2.2278890768733E-01  1.1470804189236E+00
126  1.2500000000000E+00 -2.2632911121524E-01  1.0988516047393E+00
127  1.2600000000000E+00 -2.2866540449670E-01  1.0493202858980E+00
128  1.2700000000000E+00 -2.2980523932632E-01  9.9864491396201E-01
129  1.2800000000000E+00 -2.2976186676754E-01  9.4700868574031E-01
130  1.2900000000000E+00 -2.2855564167224E-01  8.9462293072817E-01
131  1.3000000000000E+00 -2.2621524104026E-01  8.4172959191845E-01
132  1.3100000000000E+00 -2.2277872925625E-01  7.8860244490349E-01
133  1.3200000000000E+00 -2.1829439399084E-01  7.3554665446902E-01
134  1.3300000000000E+00 -2.1282126656651E-01  6.8289621861811E-01