Ho    ONCVPSP-4.0.1  r_core=   2.00759   1.60898   1.90236   1.40216
67.0000     21.0000      230112    zatom,zion,pspd
8      11   3     4   600     0    pspcod,pspxc,lmax,lloc,mmax,r2well
5.99000000  4.00000000  0.00000000    rchrg fchrg qchrg
2     2     2     2     0    nproj
1     1           extension_switch
0                         7.4547843786431E+00  1.0214416770388E+00
1  0.0000000000000E+00  7.1664230105739E-11 -2.0280566115360E-10
2  1.0000000000000E-02  4.2256835205803E-02 -4.2406952080917E-03
3  2.0000000000000E-02  8.4489004831746E-02 -8.5082679670027E-03
4  3.0000000000000E-02  1.2667168014669E-01 -1.2829089791826E-02
5  4.0000000000000E-02  1.6877970810352E-01 -1.7228525485252E-02
6  5.0000000000000E-02  2.1078745412936E-01 -2.1730443127170E-02
7  6.0000000000000E-02  2.5266865080250E-01 -2.6356739934527E-02
8  7.0000000000000E-02  2.9439625429369E-01 -3.1126889041785E-02
9  8.0000000000000E-02  3.3594231037760E-01 -3.6057512049485E-02
10  9.0000000000000E-02  3.7727783173203E-01 -4.1161981938362E-02
11  1.0000000000000E-01  4.1837268813763E-01 -4.6450060651252E-02
12  1.1000000000000E-01  4.5919551107164E-01 -5.1927575307402E-02
13  1.2000000000000E-01  4.9971361405476E-01 -5.7596136636726E-02
14  1.3000000000000E-01  5.3989292996404E-01 -6.3452902808397E-02
15  1.4000000000000E-01  5.7969796636536E-01 -6.9490391382750E-02
16  1.5000000000000E-01  6.1909177975053E-01 -7.5696341641650E-02
17  1.6000000000000E-01  6.5803596938543E-01 -8.2053629054818E-02
18  1.7000000000000E-01  6.9649069129058E-01 -8.8540233122327E-02
19  1.8000000000000E-01  7.3441469268360E-01 -9.5129259301810E-02
20  1.9000000000000E-01  7.7176536701775E-01 -1.0178901518716E-01
21  2.0000000000000E-01  8.0849882955243E-01 -1.0848314055956E-01
22  2.1000000000000E-01  8.4457001319288E-01 -1.1517079038567E-01
23  2.2000000000000E-01  8.7993278413823E-01 -1.2180686929810E-01
24  2.3000000000000E-01  9.1454007668229E-01 -1.2834231556402E-01
25  2.4000000000000E-01  9.4834404632098E-01 -1.3472443203484E-01
26  2.5000000000000E-01  9.8129624013594E-01 -1.4089726107779E-01
27  2.6000000000000E-01  1.0133477832481E+00 -1.4680200002489E-01
28  2.7000000000000E-01  1.0444495799684E+00 -1.5237745323909E-01
29  2.8000000000000E-01  1.0745525281172E+00 -1.5756051649839E-01
30  2.9000000000000E-01  1.1036077448422E+00 -1.6228668903790E-01
31  3.0000000000000E-01  1.1315668021366E+00 -1.6649060827402E-01
32  3.1000000000000E-01  1.1583819701441E+00 -1.7010660196457E-01
33  3.2000000000000E-01  1.1840064662449E+00 -1.7306925233998E-01
34  3.3000000000000E-01  1.2083947078347E+00 -1.7531396657428E-01
35  3.4000000000000E-01  1.2315025666510E+00 -1.7677754785330E-01
36  3.5000000000000E-01  1.2532876224592E+00 -1.7739876124434E-01
37  3.6000000000000E-01  1.2737094138899E+00 -1.7711888857502E-01
38  3.7000000000000E-01  1.2927296842201E+00 -1.7588226659334E-01
39  3.8000000000000E-01  1.3103126199075E+00 -1.7363680280325E-01
40  3.9000000000000E-01  1.3264250797310E+00 -1.7033446355158E-01
41  4.0000000000000E-01  1.3410368124488E+00 -1.6593172918128E-01
42  4.1000000000000E-01  1.3541206609675E+00 -1.6039001136194E-01
43  4.2000000000000E-01  1.3656527511143E+00 -1.5367602805708E-01
44  4.3000000000000E-01  1.3756126632266E+00 -1.4576213198942E-01
45  4.4000000000000E-01  1.3839835849054E+00 -1.3662658891348E-01
46  4.5000000000000E-01  1.3907524434368E+00 -1.2625380249784E-01
47  4.6000000000000E-01  1.3959100165529E+00 -1.1463448315198E-01
48  4.7000000000000E-01  1.3994510203860E+00 -1.0176575870062E-01
49  4.8000000000000E-01  1.4013741736681E+00 -8.7651225404780E-02
50  4.9000000000000E-01  1.4016822374319E+00 -7.2300938451015E-02
51  5.0000000000000E-01  1.4003820296853E+00 -5.5731341668795E-02
52  5.1000000000000E-01  1.3974844147566E+00 -3.7965136886914E-02
53  5.2000000000000E-01  1.3930042672302E+00 -1.9031093995875E-02
54  5.3000000000000E-01  1.3869604106289E+00  1.0361965628969E-03
55  5.4000000000000E-01  1.3793755312241E+00  2.2196626514222E-02
56  5.5000000000000E-01  1.3702760675908E+00  4.4404924676061E-02
57  5.6000000000000E-01  1.3596920767443E+00  6.7611060491071E-02
58  5.7000000000000E-01  1.3476570779218E+00  9.1760691979397E-02
59  5.8000000000000E-01  1.3342078752784E+00  1.1679565338560E-01
60  5.9000000000000E-01  1.3193843609728E+00  1.4265447729198E-01
61  6.0000000000000E-01  1.3032293003065E+00  1.6927294551679E-01
62  6.1000000000000E-01  1.2857881007558E+00  1.9658466271732E-01
63  6.2000000000000E-01  1.2671085668942E+00  2.2452164627652E-01
64  6.3000000000000E-01  1.2472406433486E+00  2.5301492577590E-01
65  6.4000000000000E-01  1.2262361480492E+00  2.8199514514800E-01
66  6.5000000000000E-01  1.2041484981422E+00  3.1139316046416E-01
67  6.6000000000000E-01  1.1810324310082E+00  3.4114062624991E-01
68  6.7000000000000E-01  1.1569437228925E+00  3.7117056323285E-01
69  6.8000000000000E-01  1.1319389076823E+00  4.0141790051842E-01
70  6.9000000000000E-01  1.1060749983801E+00  4.3181998535747E-01
71  7.0000000000000E-01  1.0794092138074E+00  4.6231705391628E-01
72  7.1000000000000E-01  1.0519987130300E+00  4.9285265678346E-01
73  7.2000000000000E-01  1.0239003399406E+00  5.2337403334751E-01
74  7.3000000000000E-01  9.9517038033900E-01  5.5383242965069E-01
75  7.4000000000000E-01  9.6586433374591E-01  5.8418335486668E-01
76  7.5000000000000E-01  9.3603670204938E-01  6.1438677215631E-01
77  7.6000000000000E-01  9.0574079692963E-01  6.4440722032428E-01
78  7.7000000000000E-01  8.7502856783187E-01  6.7421386342259E-01
79  7.8000000000000E-01  8.4395045206259E-01  7.0378046622002E-01
80  7.9000000000000E-01  8.1255524837208E-01  7.3308529427310E-01
81  8.0000000000000E-01  7.8089001515836E-01  7.6211093818601E-01
82  8.1000000000000E-01  7.4899999418481E-01  7.9084406252870E-01
83  8.2000000000000E-01  7.1692856044939E-01  8.1927508078452E-01
84  8.3000000000000E-01  6.8471719857808E-01  8.4739775861471E-01
85  8.4000000000000E-01  6.5240550584187E-01  8.7520874864797E-01
86  8.5000000000000E-01  6.2003122161687E-01  9.0270706092218E-01
87  8.6000000000000E-01  5.8763028282278E-01  9.2989347401213E-01
88  8.7000000000000E-01  5.5523690458940E-01  9.5676989276589E-01
89  8.8000000000000E-01  5.2288368511377E-01  9.8333865943346E-01
90  8.9000000000000E-01  4.9060173338679E-01  1.0096018257981E+00
91  9.0000000000000E-01  4.5842081818717E-01  1.0355603947043E+00
92  9.1000000000000E-01  4.2636953646603E-01  1.0612135401116E+00
93  9.2000000000000E-01  3.9447549897841E-01  1.0865578154785E+00
94  9.3000000000000E-01  3.6276553076054E-01  1.1115863608981E+00
95  9.4000000000000E-01  3.3126588380543E-01  1.1362881199457E+00
96  9.5000000000000E-01  3.0000245905679E-01  1.1606470776695E+00
97  9.6000000000000E-01  2.6900103462259E-01  1.1846415315363E+00
98  9.7000000000000E-01  2.3828749690893E-01  1.2082434074415E+00
99  9.8000000000000E-01  2.0788807119127E-01  1.2314176330905E+00
100  9.9000000000000E-01  1.7782954797794E-01  1.2541215811613E+00
101  1.0000000000000E+00  1.4813950138050E-01  1.2763045946488E+00
102  1.0100000000000E+00  1.1884649558950E-01  1.2979076066712E+00
103  1.0200000000000E+00  8.9980275465346E-02  1.3188628667798E+00
104  1.0300000000000E+00  6.1571937194040E-02  1.3390937854450E+00
105  1.0400000000000E+00  3.3654074929931E-02  1.3585149078894E+00
106  1.0500000000000E+00  6.2608993550573E-03  1.3770320277913E+00
107  1.0600000000000E+00 -2.0571675868692E-02  1.3945424505819E+00
108  1.0700000000000E+00 -4.6805983689400E-02  1.4109354150935E+00
109  1.0800000000000E+00 -7.2402593094782E-02  1.4260926811712E+00
110  1.0900000000000E+00 -9.7320341990676E-02  1.4398892895270E+00
111  1.1000000000000E+00 -1.2151641689007E-01  1.4521944985727E+00
112  1.1100000000000E+00 -1.4494648246240E-01  1.4628729011956E+00
113  1.1200000000000E+00 -1.6756486361030E-01  1.4717857224361E+00
114  1.1300000000000E+00 -1.8932478227715E-01  1.4787922967367E+00
115  1.1400000000000E+00 -2.1017865064018E-01  1.4837517208718E+00
116  1.1500000000000E+00 -2.3007842169370E-01  1.4865246757680E+00
117  1.1600000000000E+00 -2.4897599747491E-01  1.4869754072034E+00
118  1.1700000000000E+00 -2.6682369430770E-01  1.4849738517463E+00
119  1.1800000000000E+00 -2.8357476343954E-01  1.4803978902861E+00
120  1.1900000000000E+00 -2.9918396429649E-01  1.4731357070206E+00
121  1.2000000000000E+00 -3.1360818627965E-01  1.4630882268123E+00
122  1.2100000000000E+00 -3.2680711355309E-01  1.4501715983388E+00
123  1.2200000000000E+00 -3.3874392560772E-01  1.4343196843797E+00
124  1.2300000000000E+00 -3.4938602453268E-01  1.4154865139310E+00
125  1.2400000000000E+00 -3.5870577783457E-01  1.3936486434495E+00
126  1.2500000000000E+00 -3.6668126333360E-01  1.3688073664737E+00
127  1.2600000000000E+00 -3.7329700009826E-01  1.3409907020298E+00
128  1.2700000000000E+00 -3.7854464652602E-01  1.3102550825192E+00
129  1.2800000000000E+00 -3.8242364355151E-01  1.2766866512471E+00
130  1.2900000000000E+00 -3.8494177751524E-01  1.2404020682336E+00
131  1.3000000000000E+00 -3.8611563343768E-01  1.2015487103969E+00
132  1.3100000000000E+00 -3.8597090531419E-01  1.1603041386119E+00
133  1.3200000000000E+00 -3.8454252554532E-01  1.1168746894285E+00
134  1.3300000000000E+00 -3.8187457069132E-01  1.0714930332227E+00
135  1.3400000000000E+00 -3.7801989541805E-01  1.0244145233335E+00
136  1.3500000000000E+00 -3.7303944073651E-01  9.7591214216941E-01
137  1.3600000000000E+00 -3.6700115637992E-01  9.2626983018593E-01
138  1.3700000000000E+00 -3.5997847042542E-01  8.7577396208667E-01
139  1.3800000000000E+00 -3.5204823138186E-01  8.2470270777278E-01
140  1.3900000000000E+00 -3.4328803977622E-01  7.7331298969791E-01
141  1.4000000000000E+00 -3.3377291906874E-01  7.2182495545505E-01
142  1.4100000000000E+00 -3.2357126665255E-01  6.7040388856270E-01
143  1.4200000000000E+00 -3.1274585558755E-01  6.1917312382590E-01
144  1.4300000000000E+00 -3.0135971665895E-01  5.6825292630280E-01
145  1.4400000000000E+00 -2.8947720713555E-01  5.1776793604985E-01
146  1.4500000000000E+00 -2.7716369105773E-01  4.6784613153793E-01
147  1.4600000000000E+00 -2.6448524442089E-01  4.1861798857715E-01
148  1.4700000000000E+00 -2.5150834043568E-01  3.7021555739444E-01
149  1.4800000000000E+00 -2.3829952315236E-01  3.2277150115746E-01
150  1.4900000000000E+00 -2.2492507177250E-01  2.7641810238988E-01
151  1.5000000000000E+00 -2.1145065840532E-01  2.3128624598681E-01
152  1.5100000000000E+00 -1.9794100213246E-01  1.8750438788231E-01
153  1.5200000000000E+00 -1.8445952236123E-01  1.4519751886481E-01
154  1.5300000000000E+00 -1.7106799447629E-01  1.0448613308643E-01
155  1.5400000000000E+00 -1.5782621085002E-01  6.5485211027479E-02
156  1.5500000000000E+00 -1.4479165027171E-01  2.8303226684814E-02
157  1.5600000000000E+00 -1.3201915882251E-01 -6.9588113480405E-03
158  1.5700000000000E+00 -1.1956064516696E-01 -4.0208275404696E-02
159  1.5800000000000E+00 -1.0746479312607E-01 -7.1361781721543E-02
160  1.5900000000000E+00 -9.5776794360875E-02 -1.0034599170132E-01
161  1.6000000000000E+00 -8.4538103663345E-02 -1.2709834362412E-01
162  1.6100000000000E+00 -7.3786219436532E-02 -1.5156770631054E-01
163  1.6200000000000E+00 -6.3554491509353E-02 -1.7371494797592E-01
164  1.6300000000000E+00 -5.3871958360064E-02 -1.9351341351878E-01
165  1.6400000000000E+00 -4.4763215496981E-02 -2.1094930463543E-01
166  1.6500000000000E+00 -3.6248316532420E-02 -2.2602195775982E-01
167  1.6600000000000E+00 -2.8342708165261E-02 -2.3874401590002E-01
168  1.6700000000000E+00 -2.1057200004089E-02 -2.4914149132808E-01
169  1.6800000000000E+00 -1.4397969869471E-02 -2.5725371700091E-01
170  1.6900000000000E+00 -8.3666048703654E-03 -2.6313318571715E-01
171  1.7000000000000E+00 -2.9601782366771E-03 -2.6684527700275E-01
172  1.7100000000000E+00  1.8286384211093E-03 -2.6846787269752E-01
173  1.7200000000000E+00  6.0114281107867E-03 -2.6809086338780E-01
174  1.7300000000000E+00  9.6038476926415E-03 -2.6581554873083E-01
175  1.7400000000000E+00  1.2625414670222E-02 -2.6175393584722E-01
176  1.7500000000000E+00  1.5099263136616E-02 -2.5602794082120E-01
177  1.7600000000000E+00  1.7051870788244E-02 -2.4876849937066E-01
178  1.7700000000000E+00  1.8512759196305E-02 -2.4011459363989E-01
179  1.7800000000000E+00  1.9514169764154E-02 -2.3021220281449E-01
180  1.7900000000000E+00  2.0090718056505E-02 -2.1921318610288E-01
181  1.8000000000000E+00  2.0279029400803E-02 -2.0727410731438E-01
182  1.8100000000000E+00  2.0117358822851E-02 -1.9455501076576E-01
183  1.8200000000000E+00  1.9645198629634E-02 -1.8121815911450E-01
184  1.8300000000000E+00  1.8902876651085E-02 -1.6742674247124E-01
185  1.8400000000000E+00  1.7931149796095E-02 -1.5334357441312E-01
186  1.8500000000000E+00  1.6770794338473E-02 -1.3912977800095E-01
187  1.8600000000000E+00  1.5462198268680E-02 -1.2494347997481E-01
188  1.8700000000000E+00  1.4044960317020E-02 -1.1093852784895E-01
189  1.8800000000000E+00  1.2557492164372E-02 -9.7263219048424E-02
190  1.8900000000000E+00  1.1036642729252E-02 -8.4059098724155E-02
191  1.9000000000000E+00  9.5173392086036E-03 -7.1459810220122E-02
192  1.9100000000000E+00  8.0319798523984E-03 -5.9589274957607E-02
193  1.9200000000000E+00  6.6087870389130E-03 -4.8556915408164E-02
194  1.9300000000000E+00  5.2746101084244E-03 -3.8465323286960E-02
195  1.9400000000000E+00  4.0545458753570E-03 -2.9409190000590E-02
196  1.9500000000000E+00  2.9698682459168E-03 -2.1469505992830E-02
197  1.9600000000000E+00  2.0381227913978E-03 -1.4713712254184E-02
198  1.9700000000000E+00  1.2729124709701E-03 -9.1950300055672E-03
199  1.9800000000000E+00  6.8401350400327E-04 -4.9538948425687E-03
200  1.9900000000000E+00  2.7429783057911E-04 -1.9955108820694E-03
201  2.0000000000000E+00  5.5466921157281E-05 -4.0632195266186E-04
202  2.0100000000000E+00 -4.9564010901169E-06  3.6479261888721E-05
203  2.0200000000000E+00  2.3772193248096E-07 -1.7433912110432E-06
204  2.03  0. -0.
205  2.04 -0.  0.
206  2.05 -0. -0.
207  2.06  0.  0.
208  2.07  0.  0.
209  2.08  0.  0.
210  2.09  0.  0.
211  2.10  0.  0.
212  2.11  0.  0.
213  2.12  0.  0.
214  2.13  0.  0.
215  2.14  0.  0.
216  2.15  0.  0.
217  2.16  0.  0.
218  2.17  0.  0.
219  2.18  0.  0.
220  2.19  0.  0.
221  2.20  0.  0.
222  2.21  0.  0.
223  2.22  0.  0.
224  2.23  0.  0.
225  2.24  0.  0.
226  2.25  0.  0.
227  2.26  0.  0.
228  2.27  0.  0.
229  2.28  0.  0.
230  2.29  0.  0.
231  2.30  0.  0.
232  2.31  0.  0.
233  2.32  0.  0.
234  2.33  0.  0.
235  2.34  0.  0.
236  2.35  0.  0.
237  2.36  0.  0.
238  2.37  0.  0.
239  2.38  0.  0.
240  2.39  0.  0.
241  2.40  0.  0.
242  2.41  0.  0.
243  2.42  0.  0.
244  2.43  0.  0.
245  2.44  0.  0.
246  2.45  0.  0.
247  2.46  0.  0.
248  2.47  0.  0.
249  2.48  0.  0.
250  2.49  0.  0.
251  2.50  0.  0.
252  2.51  0.  0.
253  2.52  0.  0.
254  2.53  0.  0.
255  2.54  0.  0.
256  2.55  0.  0.
257  2.56  0.  0.
258  2.57  0.  0.
259  2.58  0.  0.
260  2.59  0.  0.
261  2.60  0.  0.
262  2.61  0.  0.
263  2.62  0.  0.
264  2.63  0.  0.
265  2.64  0.  0.
266  2.65  0.  0.
267  2.66  0.  0.
268  2.67  0.  0.
269  2.68  0.  0.
270  2.69  0.  0.
271  2.70  0.  0.
272  2.71  0.  0.
273  2.72  0.  0.
274  2.73  0.  0.
275  2.74  0.  0.
276  2.75  0.  0.
277  2.76  0.  0.
278  2.77  0.  0.
279  2.78  0.  0.
280  2.79  0.  0.
281  2.80  0.  0.
282  2.81  0.  0.
283  2.82  0.  0.
284  2.83  0.  0.
285  2.84  0.  0.
286  2.85  0.  0.
287  2.86  0.  0.
288  2.87  0.  0.
289  2.88  0.  0.
290  2.89  0.  0.
291  2.90  0.  0.
292  2.91  0.  0.
293  2.92  0.  0.
294  2.93  0.  0.
295  2.94  0.  0.
296  2.95  0.  0.
297  2.96  0.  0.
298  2.97  0.  0.
299  2.98  0.  0.
300  2.99  0.  0.
301  3.00  0.  0.
302  3.01  0.  0.
303  3.02  0.  0.
304  3.03  0.  0.
305  3.04  0.  0.
306  3.05  0.  0.
307  3.06  0.  0.
308  3.07  0.  0.
309  3.08  0.  0.
310  3.09  0.  0.
311  3.10  0.  0.
312  3.11  0.  0.
313  3.12  0.  0.
314  3.13  0.  0.
315  3.14  0.  0.
316  3.15  0.  0.
317  3.16  0.  0.
318  3.17  0.  0.
319  3.18  0.  0.
320  3.19  0.  0.
321  3.20  0.  0.
322  3.21  0.  0.
323  3.22  0.  0.
324  3.23  0.  0.
325  3.24  0.  0.
326  3.25  0.  0.
327  3.26  0.  0.
328  3.27  0.  0.
329  3.28  0.  0.
330  3.29  0.  0.
331  3.30  0.  0.
332  3.31  0.  0.
333  3.32  0.  0.
334  3.33  0.  0.
335  3.34  0.  0.
336  3.35  0.  0.
337  3.36  0.  0.
338  3.37  0.  0.
339  3.38  0.  0.
340  3.39  0.  0.
341  3.40  0.  0.
342  3.41  0.  0.
343  3.42  0.  0.
344  3.43  0.  0.
345  3.44  0.  0.
346  3.45  0.  0.
347  3.46  0.  0.
348  3.47  0.  0.
349  3.48  0.  0.
350  3.49  0.  0.
351  3.50  0.  0.
352  3.51  0.  0.
353  3.52  0.  0.
354  3.53  0.  0.
355  3.54  0.  0.
356  3.55  0.  0.
357  3.56  0.  0.
358  3.57  0.  0.
359  3.58  0.  0.
360  3.59  0.  0.
361  3.60  0.  0.
362  3.61  0.  0.
363  3.62  0.  0.
364  3.63  0.  0.
365  3.64  0.  0.
366  3.65  0.  0.
367  3.66  0.  0.
368  3.67  0.  0.
369  3.68  0.  0.
370  3.69  0.  0.
371  3.70  0.  0.
372  3.71  0.  0.
373  3.72  0.  0.
374  3.73  0.  0.
375  3.74  0.  0.
376  3.75  0.  0.
377  3.76  0.  0.
378  3.77  0.  0.
379  3.78  0.  0.
380  3.79  0.  0.
381  3.80  0.  0.
382  3.81  0.  0.
383  3.82  0.  0.
384  3.83  0.  0.
385  3.84  0.  0.
386  3.85  0.  0.
387  3.86  0.  0.
388  3.87  0.  0.
389  3.88  0.  0.
390  3.89  0.  0.
391  3.90  0.  0.
392  3.91  0.  0.
393  3.92  0.  0.
394  3.93  0.  0.
395  3.94  0.  0.
396  3.95  0.  0.
397  3.96  0.  0.
398  3.97  0.  0.
399  3.98  0.  0.
400  3.99  0.  0.
401  4.00  0.  0.
402  4.01  0.  0.
403  4.02  0.  0.
404  4.03  0.  0.
405  4.04  0.  0.
406  4.05  0.  0.
407  4.06  0.  0.
408  4.07  0.  0.
409  4.08  0.  0.
410  4.09  0.  0.
411  4.10  0.  0.
412  4.11  0.  0.
413  4.12  0.  0.
414  4.13  0.  0.
415  4.14  0.  0.
416  4.15  0.  0.
417  4.16  0.  0.
418  4.17  0.  0.
419  4.18  0.  0.
420  4.19  0.  0.
421  4.20  0.  0.
422  4.21  0.  0.
423  4.22  0.  0.
424  4.23  0.  0.
425  4.24  0.  0.
426  4.25  0.  0.
427  4.26  0.  0.
428  4.27  0.  0.
429  4.28  0.  0.
430  4.29  0.  0.
431  4.30  0.  0.
432  4.31  0.  0.
433  4.32  0.  0.
434  4.33  0.  0.
435  4.34  0.  0.
436  4.35  0.  0.
437  4.36  0.  0.
438  4.37  0.  0.
439  4.38  0.  0.
440  4.39  0.  0.
441  4.40  0.  0.
442  4.41  0.  0.
443  4.42  0.  0.
444  4.43  0.  0.
445  4.44  0.  0.
446  4.45  0.  0.
447  4.46  0.  0.
448  4.47  0.  0.
449  4.48  0.  0.
450  4.49  0.  0.
451  4.50  0.  0.
452  4.51  0.  0.
453  4.52  0.  0.
454  4.53  0.  0.
455  4.54  0.  0.
456  4.55  0.  0.
457  4.56  0.  0.
458  4.57  0.  0.
459  4.58  0.  0.
460  4.59  0.  0.
461  4.60  0.  0.
462  4.61  0.  0.
463  4.62  0.  0.
464  4.63  0.  0.
465  4.64  0.  0.
466  4.65  0.  0.
467  4.66  0.  0.
468  4.67  0.  0.
469  4.68  0.  0.
470  4.69  0.  0.
471  4.70  0.  0.
472  4.71  0.  0.
473  4.72  0.  0.
474  4.73  0.  0.
475  4.74  0.  0.
476  4.75  0.  0.
477  4.76  0.  0.
478  4.77  0.  0.
479  4.78  0.  0.
480  4.79  0.  0.
481  4.80  0.  0.
482  4.81  0.  0.
483  4.82  0.  0.
484  4.83  0.  0.
485  4.84  0.  0.
486  4.85  0.  0.
487  4.86  0.  0.
488  4.87  0.  0.
489  4.88  0.  0.
490  4.89  0.  0.
491  4.90  0.  0.
492  4.91  0.  0.
493  4.92  0.  0.
494  4.93  0.  0.
495  4.94  0.  0.
496  4.95  0.  0.
497  4.96  0.  0.
498  4.97  0.  0.
499  4.98  0.  0.
500  4.99  0.  0.
501  5.00  0.  0.
502  5.01  0.  0.
503  5.02  0.  0.
504  5.03  0.  0.
505  5.04  0.  0.
506  5.05  0.  0.
507  5.06  0.  0.
508  5.07  0.  0.
509  5.08  0.  0.
510  5.09  0.  0.
511  5.10  0.  0.
512  5.11  0.  0.
513  5.12  0.  0.
514  5.13  0.  0.
515  5.14  0.  0.
516  5.15  0.  0.
517  5.16  0.  0.
518  5.17  0.  0.
519  5.18  0.  0.
520  5.19  0.  0.
521  5.20  0.  0.
522  5.21  0.  0.
523  5.22  0.  0.
524  5.23  0.  0.
525  5.24  0.  0.
526  5.25  0.  0.
527  5.26  0.  0.
528  5.27  0.  0.
529  5.28  0.  0.
530  5.29  0.  0.
531  5.30  0.  0.
532  5.31  0.  0.
533  5.32  0.  0.
534  5.33  0.  0.
535  5.34  0.  0.
536  5.35  0.  0.
537  5.36  0.  0.
538  5.37  0.  0.
539  5.38  0.  0.
540  5.39  0.  0.
541  5.40  0.  0.
542  5.41  0.  0.
543  5.42  0.  0.
544  5.43  0.  0.
545  5.44  0.  0.
546  5.45  0.  0.
547  5.46  0.  0.
548  5.47  0.  0.
549  5.48  0.  0.
550  5.49  0.  0.
551  5.50  0.  0.
552  5.51  0.  0.
553  5.52  0.  0.
554  5.53  0.  0.
555  5.54  0.  0.
556  5.55  0.  0.
557  5.56  0.  0.
558  5.57  0.  0.
559  5.58  0.  0.
560  5.59  0.  0.
561  5.60  0.  0.
562  5.61  0.  0.
563  5.62  0.  0.
564  5.63  0.  0.
565  5.64  0.  0.
566  5.65  0.  0.
567  5.66  0.  0.
568  5.67  0.  0.
569  5.68  0.  0.
570  5.69  0.  0.
571  5.70  0.  0.
572  5.71  0.  0.
573  5.72  0.  0.
574  5.73  0.  0.
575  5.74  0.  0.
576  5.75  0.  0.
577  5.76  0.  0.
578  5.77  0.  0.
579  5.78  0.  0.
580  5.79  0.  0.
581  5.80  0.  0.
582  5.81  0.  0.
583  5.82  0.  0.
584  5.83  0.  0.
585  5.84  0.  0.
586  5.85  0.  0.
587  5.86  0.  0.
588  5.87  0.  0.
589  5.88  0.  0.
590  5.89  0.  0.
591  5.90  0.  0.
592  5.91  0.  0.
593  5.92  0.  0.
594  5.93  0.  0.
595  5.94  0.  0.
596  5.95  0.  0.
597  5.96  0.  0.
598  5.97  0.  0.
599  5.98  0.  0.
600  5.99  0.  0.
1                         6.6191629749177E+00  5.4633735262179E-01
1  0.0000000000000E+00  9.3566818182289E-10 -5.1739239698145E-09
2  1.0000000000000E-02  1.1507509480731E-03 -1.1034883878323E-03
3  2.0000000000000E-02  4.5983459907730E-03 -4.4005216028657E-03
4  3.0000000000000E-02  1.0328849717239E-02 -9.8509945744120E-03
5  4.0000000000000E-02  1.8319162552092E-02 -1.7388698483925E-02
6  5.0000000000000E-02  2.8537208051403E-02 -2.6922259936313E-02
7  6.0000000000000E-02  4.0942191412061E-02 -3.8336435410258E-02
8  7.0000000000000E-02  5.5484925562061E-02 -5.1493740982053E-02
9  8.0000000000000E-02  7.2108220263528E-02 -6.6236392143490E-02
10  9.0000000000000E-02  9.0747328798930E-02 -8.2388523754765E-02
11  1.0000000000000E-01  1.1133044603796E-01 -9.9758655864321E-02
12  1.1000000000000E-01  1.3377925101032E-01 -1.1814236735464E-01
13  1.2000000000000E-01  1.5800948654927E-01 -1.3732513619828E-01
14  1.3000000000000E-01  1.8393156813114E-01 -1.5708530257900E-01
15  1.4000000000000E-01  2.1145121372417E-01 -1.7719710929069E-01
16  1.5000000000000E-01  2.4047008628107E-01 -1.9743377270037E-01
17  1.6000000000000E-01  2.7088644046614E-01 -2.1757053716792E-01
18  1.7000000000000E-01  3.0259576530053E-01 -2.3738766616268E-01
19  1.8000000000000E-01  3.3549141463577E-01 -2.5667332439840E-01
20  1.9000000000000E-01  3.6946521772342E-01 -2.7522630710832E-01
21  2.0000000000000E-01  4.0440806262961E-01 -2.9285857507210E-01
22  2.1000000000000E-01  4.4021044584115E-01 -3.0939755714776E-01
23  2.2000000000000E-01  4.7676298211275E-01 -3.2468818580537E-01
24  2.3000000000000E-01  5.1395686940241E-01 -3.3859463544632E-01
25  2.4000000000000E-01  5.5168430461950E-01 -3.5100173805513E-01
26  2.5000000000000E-01  5.8983884685322E-01 -3.6181605589508E-01
27  2.6000000000000E-01  6.2831572574170E-01 -3.7096659644354E-01
28  2.7000000000000E-01  6.6701209366739E-01 -3.7840516048052E-01
29  2.8000000000000E-01  7.0582722150481E-01 -3.8410632010511E-01
30  2.9000000000000E-01  7.4466263868465E-01 -3.8806702936558E-01
31  3.0000000000000E-01  7.8342221935580E-01 -3.9030587605765E-01
32  3.1000000000000E-01  8.2201221740675E-01 -3.9086198897690E-01
33  3.2000000000000E-01  8.6034125403269E-01 -3.8979362041583E-01
34  3.3000000000000E-01  8.9832026238946E-01 -3.8717642888556E-01
35  3.4000000000000E-01  9.3586239464388E-01 -3.8310149183311E-01
36  3.5000000000000E-01  9.7288289740009E-01 -3.7767308244169E-01
37  3.6000000000000E-01  1.0092989620401E+00 -3.7100624837406E-01
38  3.7000000000000E-01  1.0450295569546E+00 -3.6322423348590E-01
39  3.8000000000000E-01  1.0799952489492E+00 -3.5445578604778E-01
40  3.9000000000000E-01  1.1141180212844E+00 -3.4483239882778E-01
41  4.0000000000000E-01  1.1473210958434E+00 -3.3448552747333E-01
42  4.1000000000000E-01  1.1795287668178E+00 -3.2354383397188E-01
43  4.2000000000000E-01  1.2106662530568E+00 -3.1213050155787E-01
44  4.3000000000000E-01  1.2406595758484E+00 -3.0036066627555E-01
45  4.4000000000000E-01  1.2694354683921E+00 -2.8833900851831E-01
46  4.5000000000000E-01  1.2969213225934E+00 -2.7615754527738E-01
47  4.6000000000000E-01  1.3230451780706E+00 -2.6389366058311E-01
48  4.7000000000000E-01  1.3477357574229E+00 -2.5160840776522E-01
49  4.8000000000000E-01  1.3709225508857E+00 -2.3934511275217E-01
50  4.9000000000000E-01  1.3925359525020E+00 -2.2712830274618E-01
51  5.0000000000000E-01  1.4125074488929E+00 -2.1496297932718E-01
52  5.1000000000000E-01  1.4307698606259E+00 -2.0283424943915E-01
53  5.2000000000000E-01  1.4472576350819E+00 -1.9070732188768E-01
54  5.3000000000000E-01  1.4619071886218E+00 -1.7852787102063E-01
55  5.4000000000000E-01  1.4746572947821E+00 -1.6622276327167E-01
56  5.5000000000000E-01  1.4854495141904E+00 -1.5370113631447E-01
57  5.6000000000000E-01  1.4942286609197E+00 -1.4085581480278E-01
58  5.7000000000000E-01  1.5009432990974E+00 -1.2756504114907E-01
59  5.8000000000000E-01  1.5055462627832E+00 -1.1369449461468E-01
60  5.9000000000000E-01  1.5079951914283E+00 -9.9099567231680E-02
61  6.0000000000000E-01  1.5082530726570E+00 -8.3627860828426E-02
62  6.1000000000000E-01  1.5062887836653E+00 -6.7121865757858E-02
63  6.2000000000000E-01  1.5020776222319E+00 -4.9421778891845E-02
64  6.3000000000000E-01  1.4956018181883E+00 -3.0368416095018E-02
65  6.4000000000000E-01  1.4868510161944E+00 -9.8061727691150E-03
66  6.5000000000000E-01  1.4758227208292E+00  1.2414014809119E-02
67  6.6000000000000E-01  1.4625226953183E+00  3.6431754731195E-02
68  6.7000000000000E-01  1.4469653056896E+00  6.2374377981792E-02
69  6.8000000000000E-01  1.4291738027610E+00  9.0354255506691E-02
70  6.9000000000000E-01  1.4091805351173E+00  1.2046629690793E-01
71  7.0000000000000E-01  1.3870270871138E+00  1.5278567096533E-01
72  7.1000000000000E-01  1.3627643369366E+00  1.8736578464172E-01
73  7.2000000000000E-01  1.3364524308469E+00  2.2423655308493E-01
74  7.3000000000000E-01  1.3081606709114E+00  2.6340298846364E-01
75  7.4000000000000E-01  1.2779673147632E+00  3.0484413034195E-01
76  7.5000000000000E-01  1.2459592872239E+00  3.4851233479556E-01
77  7.6000000000000E-01  1.2122318049270E+00  3.9433293369096E-01
78  7.7000000000000E-01  1.1768879163980E+00  4.4220426958702E-01
79  7.8000000000000E-01  1.1400379613366E+00  4.9199810567297E-01
80  7.9000000000000E-01  1.1017989541067E+00  5.4356040413411E-01
81  8.0000000000000E-01  1.0622938976265E+00  5.9671246043404E-01
82  8.1000000000000E-01  1.0216510349653E+00  6.5125237532584E-01
83  8.2000000000000E-01  9.8000304696459E-01  7.0695684104734E-01
84  8.3000000000000E-01  9.3748620508875E-01  7.6358321321248E-01
85  8.4000000000000E-01  8.9423948947196E-01  8.2087183546763E-01
86  8.5000000000000E-01  8.5040368273123E-01  8.7854858011630E-01
87  8.6000000000000E-01  8.0612045056510E-01  9.3632756469729E-01
88  8.7000000000000E-01  7.6153142043254E-01  9.9391400198914E-01
89  8.8000000000000E-01  7.1677726970598E-01  1.0510071391527E+00
90  8.9000000000000E-01  6.7199683460994E-01  1.1073032407524E+00
91  9.0000000000000E-01  6.2732625099165E-01  1.1624985702314E+00
92  9.1000000000000E-01  5.8289813752343E-01  1.2162923250716E+00
93  9.2000000000000E-01  5.3884083131304E-01  1.2683894823324E+00
94  9.3000000000000E-01  4.9527768510492E-01  1.3185035135207E+00
95  9.4000000000000E-01  4.5232643430173E-01  1.3663589307628E+00
96  9.5000000000000E-01  4.1009864093467E-01  1.4116936299751E+00
97  9.6000000000000E-01  3.6869922047704E-01  1.4542610011179E+00
98  9.7000000000000E-01  3.2822605604646E-01  1.4938317805825E+00
99  9.8000000000000E-01  2.8876970309501E-01  1.5301956262296E+00
100  9.9000000000000E-01  2.5041318616544E-01  1.5631624014750E+00
101  1.0000000000000E+00  2.1323188771615E-01  1.5925631610084E+00
102  1.0100000000000E+00  1.7729352741485E-01  1.6182508371121E+00
103  1.0200000000000E+00  1.4265822869094E-01  1.6401006320246E+00
104  1.0300000000000E+00  1.0937866774857E-01  1.6580101282329E+00
105  1.0400000000000E+00  7.7500298701281E-02  1.6718991348563E+00
106  1.0500000000000E+00  4.7061647018997E-02  1.6817092942919E+00
107  1.0600000000000E+00  1.8094662107345E-02  1.6874034788825E+00
108  1.0700000000000E+00 -9.3748814064048E-03  1.6889650124290E+00
109  1.0800000000000E+00 -3.5326945205279E-02  1.6863967557761E+00
110  1.0900000000000E+00 -5.9746764078708E-02  1.6797200993210E+00
111  1.1000000000000E+00 -8.2624371154804E-02  1.6689739080262E+00
112  1.1100000000000E+00 -1.0395412524425E-01  1.6542134662282E+00
113  1.1200000000000E+00 -1.2373425423167E-01  1.6355094701286E+00
114  1.1300000000000E+00 -1.4196642844443E-01  1.6129471152112E+00
115  1.1400000000000E+00 -1.5865537763977E-01  1.5866253238686E+00
116  1.1500000000000E+00 -1.7380856465130E-01  1.5566561551060E+00
117  1.1600000000000E+00 -1.8743592781819E-01  1.5231644332950E+00
118  1.1700000000000E+00 -1.9954970304872E-01  1.4862876263865E+00
119  1.1800000000000E+00 -2.1016433474608E-01  1.4461759957871E+00
120  1.1900000000000E+00 -2.1929648280876E-01  1.4029930300587E+00
121  1.2000000000000E+00 -2.2696513050733E-01  1.3569161627150E+00
122  1.2100000000000E+00 -2.3319179521215E-01  1.3081377605501E+00
123  1.2200000000000E+00 -2.3800084066146E-01  1.2568663529718E+00
124  1.2300000000000E+00 -2.4141988574576E-01  1.2033280548561E+00
125  1.2400000000000E+00 -2.4348030054454E-01  1.1477681150471E+00
126  1.2500000000000E+00 -2.4421777563557E-01  1.0904525000344E+00
127  1.2600000000000E+00 -2.4367294544094E-01  1.0316693972737E+00
128  1.2700000000000E+00 -2.4189204052639E-01  9.7173049481792E-01
129  1.2800000000000E+00 -2.3892753736688E-01  9.1097186360390E-01
130  1.2900000000000E+00 -2.3483876703769E-01  8.4975423544650E-01
131  1.3000000000000E+00 -2.2969243655292E-01  7.8846243338658E-01
132  1.3100000000000E+00 -2.2356300815370E-01  7.2750367155158E-01
133  1.3200000000000E+00 -2.1653287268163E-01  6.6730439882018E-01
134  1.3300000000000E+00 -2.0869224314920E-01  6.0830531384431E-01