Ho    ONCVPSP-4.0.1  r_core=   1.80265   1.50651   1.65783   1.40216
67.0000     21.0000      221106    zatom,zion,pspd
8      11   3     4   600     0    pspcod,pspxc,lmax,lloc,mmax,r2well
5.99000000  0.25000000  0.00000000    rchrg fchrg qchrg
2     2     2     2     0    nproj
1     1           extension_switch
0                         8.9878887971319E+00  8.3032455863242E-01
1  0.0000000000000E+00  1.8764845233221E-10 -6.5435894203159E-10
2  1.0000000000000E-02  4.3560451064154E-02 -7.4608092789264E-03
3  2.0000000000000E-02  8.7103848357238E-02 -1.4963465858574E-02
4  3.0000000000000E-02  1.3061281898254E-01 -2.2548840086683E-02
5  4.0000000000000E-02  1.7406935597309E-01 -3.0255861674222E-02
6  5.0000000000000E-02  2.1745451166077E-01 -3.8120582381274E-02
7  6.0000000000000E-02  2.6074810339595E-01 -4.6175277837781E-02
8  7.0000000000000E-02  3.0392843551165E-01 -5.4447600766407E-02
9  8.0000000000000E-02  3.4697204123873E-01 -6.2959797220449E-02
10  9.0000000000000E-02  3.8985344804800E-01 -7.1727996646944E-02
11  1.0000000000000E-01  4.3254496962455E-01 -8.0761585643601E-02
12  1.1000000000000E-01  4.7501652737172E-01 -9.0062674209599E-02
13  1.2000000000000E-01  5.1723550400066E-01 -9.9625662107794E-02
14  1.3000000000000E-01  5.5916663139055E-01 -1.0943691167372E-01
15  1.4000000000000E-01  6.0077191450790E-01 -1.1947453204110E-01
16  1.5000000000000E-01  6.4201059275622E-01 -1.2970827832105E-01
17  1.6000000000000E-01  6.8283913969383E-01 -1.4009956779067E-01
18  1.7000000000000E-01  7.2321130161350E-01 -1.5060161363450E-01
19  1.8000000000000E-01  7.6307817502690E-01 -1.6115967525807E-01
20  1.9000000000000E-01  8.0238832264636E-01 -1.7171142267674E-01
21  2.0000000000000E-01  8.4108792700969E-01 -1.8218741099216E-01
22  2.1000000000000E-01  8.7912098045711E-01 -1.9251165952414E-01
23  2.2000000000000E-01  9.1642950974748E-01 -2.0260232878409E-01
24  2.3000000000000E-01  9.5295383319870E-01 -2.1237248717652E-01
25  2.4000000000000E-01  9.8863284785948E-01 -2.2173095811298E-01
26  2.5000000000000E-01  1.0234043438702E+00 -2.3058323713516E-01
27  2.6000000000000E-01  1.0572053428549E+00 -2.3883246768383E-01
28  2.7000000000000E-01  1.0899724569073E+00 -2.4638046333161E-01
29  2.8000000000000E-01  1.1216422644918E+00 -2.5312876363129E-01
30  2.9000000000000E-01  1.1521516993883E+00 -2.5897971022630E-01
31  3.0000000000000E-01  1.1814384486516E+00 -2.6383752953415E-01
32  3.1000000000000E-01  1.2094413554566E+00 -2.6760940815223E-01
33  3.2000000000000E-01  1.2361008226412E+00 -2.7020654715141E-01
34  3.3000000000000E-01  1.2613592127496E+00 -2.7154518161755E-01
35  3.4000000000000E-01  1.2851612404225E+00 -2.7154755217270E-01
36  3.5000000000000E-01  1.3074543530671E+00 -2.7014281575398E-01
37  3.6000000000000E-01  1.3281890958767E+00 -2.6726788364175E-01
38  3.7000000000000E-01  1.3473194574530E+00 -2.6286817560222E-01
39  3.8000000000000E-01  1.3648031925088E+00 -2.5689828003469E-01
40  3.9000000000000E-01  1.3806021183933E+00 -2.4932251117504E-01
41  4.0000000000000E-01  1.3946823824882E+00 -2.4011535569391E-01
42  4.1000000000000E-01  1.4070146978592E+00 -2.2926180242373E-01
43  4.2000000000000E-01  1.4175745449127E+00 -2.1675755043404E-01
44  4.3000000000000E-01  1.4263423372012E+00 -2.0260909223607E-01
45  4.4000000000000E-01  1.4333035499325E+00 -1.8683367050904E-01
46  4.5000000000000E-01  1.4384488101642E+00 -1.6945910838804E-01
47  4.6000000000000E-01  1.4417739481026E+00 -1.5052351501060E-01
48  4.7000000000000E-01  1.4432800093681E+00 -1.3007486966770E-01
49  4.8000000000000E-01  1.4429732285265E+00 -1.0817048952277E-01
50  4.9000000000000E-01  1.4408649646232E+00 -8.4876387426564E-02
51  5.0000000000000E-01  1.4369715998772E+00 -6.0266527847864E-02
52  5.1000000000000E-01  1.4313144030996E+00 -3.4421990338208E-02
53  5.2000000000000E-01  1.4239193597802E+00 -7.4300512345359E-03
54  5.3000000000000E-01  1.4148169711475E+00  2.0616804540435E-02
55  5.4000000000000E-01  1.4040420248292E+00  4.9621928711826E-02
56  5.5000000000000E-01  1.3916333400296E+00  7.9485598202747E-02
57  5.6000000000000E-01  1.3776334903962E+00  1.1010613260975E-01
58  5.7000000000000E-01  1.3620885079519E+00  1.4138102572046E-01
59  5.8000000000000E-01  1.3450475716399E+00  1.7320807589122E-01
60  5.9000000000000E-01  1.3265626841440E+00  2.0548649999999E-01
61  6.0000000000000E-01  1.3066883407231E+00  2.3811801578765E-01
62  6.1000000000000E-01  1.2854811938218E+00  2.7100787769812E-01
63  6.2000000000000E-01  1.2629997171959E+00  3.0406585182408E-01
64  6.3000000000000E-01  1.2393038732232E+00  3.3720711625324E-01
65  6.4000000000000E-01  1.2144547869533E+00  3.7035307398329E-01
66  6.5000000000000E-01  1.1885144302929E+00  4.0343206662285E-01
67  6.6000000000000E-01  1.1615453195188E+00  4.3637997830560E-01
68  6.7000000000000E-01  1.1336102290793E+00  4.6914072060306E-01
69  6.8000000000000E-01  1.1047719243631E+00  5.0166659071011E-01
70  6.9000000000000E-01  1.0750929158213E+00  5.3391849677751E-01
71  7.0000000000000E-01  1.0446352364896E+00  5.6586604595689E-01
72  7.1000000000000E-01  1.0134602446158E+00  5.9748749248588E-01
73  7.2000000000000E-01  9.8162845272424E-01  6.2876954494988E-01
74  7.3000000000000E-01  9.4919938407631E-01  6.5970703368922E-01
75  7.4000000000000E-01  9.1623145709993E-01  6.9030244115574E-01
76  7.5000000000000E-01  8.8278189797779E-01  7.2056529983271E-01
77  7.6000000000000E-01  8.4890668120520E-01  7.5051146409859E-01
78  7.7000000000000E-01  8.1466049755816E-01  7.8016226411178E-01
79  7.8000000000000E-01  7.8009674855723E-01  8.0954355140301E-01
80  7.9000000000000E-01  7.4526756617619E-01  8.3868464736129E-01
81  8.0000000000000E-01  7.1022385623042E-01  8.6761720717235E-01
82  8.1000000000000E-01  6.7501536359271E-01  8.9637401299887E-01
83  8.2000000000000E-01  6.3969075712555E-01  9.2498771126536E-01
84  8.3000000000000E-01  6.0429773199273E-01  9.5348950981565E-01
85  8.4000000000000E-01  5.6888312681960E-01  9.8190785144067E-01
86  8.5000000000000E-01  5.3349305301319E-01  1.0102670808193E+00
87  8.6000000000000E-01  4.9817303343012E-01  1.0385861222756E+00
88  8.7000000000000E-01  4.6296814749176E-01  1.0668771859293E+00
89  8.8000000000000E-01  4.2792317979275E-01  1.0951445198041E+00
90  8.9000000000000E-01  3.9308276922731E-01  1.1233832252692E+00
91  9.0000000000000E-01  3.5849155566849E-01  1.1515781528249E+00
92  9.1000000000000E-01  3.2419432127359E-01  1.1797028947179E+00
93  9.2000000000000E-01  2.9023612355349E-01  1.2077188901925E+00
94  9.3000000000000E-01  2.5666241743053E-01  1.2355746583695E+00
95  9.4000000000000E-01  2.2351916361523E-01  1.2632051728013E+00
96  9.5000000000000E-01  1.9085292075377E-01  1.2905313907015E+00
97  9.6000000000000E-01  1.5871091893138E-01  1.3174599487042E+00
98  9.7000000000000E-01  1.2714111225829E-01  1.3438830357801E+00
99  9.8000000000000E-01  9.6192208412060E-02  1.3696784526528E+00
100  9.9000000000000E-01  6.5913673158788E-02  1.3947098657144E+00
101  1.0000000000000E+00  3.6355708024907E-02  1.4188272620622E+00
102  1.0100000000000E+00  7.5691994380210E-03  1.4418676108693E+00
103  1.0200000000000E+00 -2.0394362200593E-02  1.4636557348652E+00
104  1.0300000000000E+00 -4.7482994908290E-02  1.4840053942519E+00
105  1.0400000000000E+00 -7.3644370235753E-02  1.5027205839052E+00
106  1.0500000000000E+00 -9.8825992223108E-02  1.5195970432111E+00
107  1.0600000000000E+00 -1.2297541117461E-01  1.5344239763523E+00
108  1.0700000000000E+00 -1.4604047308006E-01  1.5469859792805E+00
109  1.0800000000000E+00 -1.6796960534842E-01  1.5570651679579E+00
110  1.0900000000000E+00 -1.8871213933561E-01  1.5644435007090E+00
111  1.1000000000000E+00 -2.0821866993667E-01  1.5689052856663E+00
112  1.1100000000000E+00 -2.2644145225927E-01  1.5702398622640E+00
113  1.1200000000000E+00 -2.4333483509377E-01  1.5682444435223E+00
114  1.1300000000000E+00 -2.5885573052602E-01  1.5627271033909E+00
115  1.1400000000000E+00 -2.7296411859478E-01  1.5535098906648E+00
116  1.1500000000000E+00 -2.8562358535231E-01  1.5404320478488E+00
117  1.1600000000000E+00 -2.9680189203666E-01  1.5233533098228E+00
118  1.1700000000000E+00 -3.0647157227720E-01  1.5021572531055E+00
119  1.1800000000000E+00 -3.1461055332431E-01  1.4767546619360E+00
120  1.1900000000000E+00 -3.2120279618552E-01  1.4470868721397E+00
121  1.2000000000000E+00 -3.2623894825253E-01  1.4131290477819E+00
122  1.2100000000000E+00 -3.2971700048902E-01  1.3748933388444E+00
123  1.2200000000000E+00 -3.3164293948542E-01  1.3324318604432E+00
124  1.2300000000000E+00 -3.3203138267415E-01  1.2858394254635E+00
125  1.2400000000000E+00 -3.3090618267074E-01  1.2352559526471E+00
126  1.2500000000000E+00 -3.2830098407695E-01  1.1808684611911E+00
127  1.2600000000000E+00 -3.2425971310252E-01  1.1229125506149E+00
128  1.2700000000000E+00 -3.1883697699000E-01  1.0616732508538E+00
129  1.2800000000000E+00 -3.1209834647184E-01  9.9748511228135E-01
130  1.2900000000000E+00 -3.0412049028399E-01  9.3073138839098E-01
131  1.3000000000000E+00 -2.9499112607585E-01  8.6184214504961E-01
132  1.3100000000000E+00 -2.8480874688451E-01  7.9129110955082E-01
133  1.3200000000000E+00 -2.7368207663559E-01  7.1959104994875E-01
134  1.3300000000000E+00 -2.6172920181831E-01  6.4728745004607E-01
135  1.3400000000000E+00 -2.4907631958592E-01  5.7495021804579E-01
136  1.3500000000000E+00 -2.3585603498582E-01  5.0316313697720E-01
137  1.3600000000000E+00 -2.2220513174953E-01  4.3251073226242E-01
138  1.3700000000000E+00 -2.0826173208059E-01  3.6356219622854E-01
139  1.3800000000000E+00 -1.9416175015434E-01  2.9685196471405E-01
140  1.3900000000000E+00 -1.8003453291519E-01  2.3285649721129E-01
141  1.4000000000000E+00 -1.6599763196944E-01  1.7196714830298E-01
142  1.4100000000000E+00 -1.5215063941721E-01  1.1445901981434E-01
143  1.4200000000000E+00 -1.3857678275360E-01  6.0510579360004E-02
144  1.4300000000000E+00 -1.2535182778573E-01  1.0266119902918E-02
145  1.4400000000000E+00 -1.1254564507359E-01 -3.6152510221630E-02
146  1.4500000000000E+00 -1.0022174330565E-01 -7.8647681061854E-02
147  1.4600000000000E+00 -8.8436921314695E-02 -1.1714712923710E-01
148  1.4700000000000E+00 -7.7240971605193E-02 -1.5160492695383E-01
149  1.4800000000000E+00 -6.6676447919463E-02 -1.8200219944790E-01
150  1.4900000000000E+00 -5.6778499391219E-02 -2.0834758200319E-01
151  1.5000000000000E+00 -4.7574773584878E-02 -2.3067740753091E-01
152  1.5100000000000E+00 -3.9085389964134E-02 -2.4905561873730E-01
153  1.5200000000000E+00 -3.1322984613125E-02 -2.6357340169779E-01
154  1.5300000000000E+00 -2.4292826209770E-02 -2.7434854102388E-01
155  1.5400000000000E+00 -1.7993002493448E-02 -2.8152449977550E-01
156  1.5500000000000E+00 -1.2414675678661E-02 -2.8526923043312E-01
157  1.5600000000000E+00 -7.5424044917907E-03 -2.8577372633623E-01
158  1.5700000000000E+00 -3.3545297412455E-03 -2.8325032606622E-01
159  1.5800000000000E+00  1.7638036272863E-04 -2.7793078597734E-01
160  1.5900000000000E+00  3.0830296900986E-03 -2.7006413924395E-01
161  1.6000000000000E+00  5.4028433023062E-03 -2.5991436043351E-01
162  1.6100000000000E+00  7.1773727516540E-03 -2.4775786294593E-01
163  1.6200000000000E+00  8.4516624408308E-03 -2.3388084717053E-01
164  1.6300000000000E+00  9.2735851105128E-03 -2.1857653336637E-01
165  1.6400000000000E+00  9.6931527035085E-03 -2.0214230326451E-01
166  1.6500000000000E+00  9.7618102804477E-03 -1.8487678147361E-01
167  1.6600000000000E+00  9.5317205612449E-03 -1.6707688695452E-01
168  1.6700000000000E+00  9.0550468463223E-03 -1.4903488559228E-01
169  1.6800000000000E+00  8.3832435947206E-03 -1.3103547954441E-01
170  1.6900000000000E+00  7.5663475743177E-03 -1.1335291943020E-01
171  1.7000000000000E+00  6.6523358543307E-03 -9.6248345417177E-02
172  1.7100000000000E+00  5.6864473556415E-03 -7.9967067557078E-02
173  1.7200000000000E+00  4.7088420788526E-03 -6.4730763609348E-02
174  1.7300000000000E+00  3.7543090934064E-03 -5.0735836010193E-02
175  1.7400000000000E+00  2.8582767619242E-03 -3.8171364736249E-02
176  1.7500000000000E+00  2.0511087910922E-03 -2.7201541181965E-02
177  1.7600000000000E+00  1.3576266863691E-03 -1.7963754668215E-02
178  1.7700000000000E+00  7.9674149438130E-04 -1.0567099893005E-02
179  1.7800000000000E+00  3.8126223540285E-04 -5.0923326250966E-03
180  1.7900000000000E+00  1.1660398762677E-04 -1.5756657354426E-03
181  1.8000000000000E+00  8.6337146252198E-06 -1.1879312367765E-04
182  1.8100000000000E+00 -2.7374529431582E-06  3.7893591600507E-05
183  1.8200000000000E+00  1.1216904536436E-06 -1.5359091539035E-05
184  1.83 -0.  0.
185  1.84 -0. -0.
186  1.85  0.  0.
187  1.86  0.  0.
188  1.87  0.  0.
189  1.88  0.  0.
190  1.89  0.  0.
191  1.90  0.  0.
192  1.91  0.  0.
193  1.92  0.  0.
194  1.93  0.  0.
195  1.94  0.  0.
196  1.95  0.  0.
197  1.96  0.  0.
198  1.97  0.  0.
199  1.98  0.  0.
200  1.99  0.  0.
201  2.00  0.  0.
202  2.01  0.  0.
203  2.02  0.  0.
204  2.03  0.  0.
205  2.04  0.  0.
206  2.05  0.  0.
207  2.06  0.  0.
208  2.07  0.  0.
209  2.08  0.  0.
210  2.09  0.  0.
211  2.10  0.  0.
212  2.11  0.  0.
213  2.12  0.  0.
214  2.13  0.  0.
215  2.14  0.  0.
216  2.15  0.  0.
217  2.16  0.  0.
218  2.17  0.  0.
219  2.18  0.  0.
220  2.19  0.  0.
221  2.20  0.  0.
222  2.21  0.  0.
223  2.22  0.  0.
224  2.23  0.  0.
225  2.24  0.  0.
226  2.25  0.  0.
227  2.26  0.  0.
228  2.27  0.  0.
229  2.28  0.  0.
230  2.29  0.  0.
231  2.30  0.  0.
232  2.31  0.  0.
233  2.32  0.  0.
234  2.33  0.  0.
235  2.34  0.  0.
236  2.35  0.  0.
237  2.36  0.  0.
238  2.37  0.  0.
239  2.38  0.  0.
240  2.39  0.  0.
241  2.40  0.  0.
242  2.41  0.  0.
243  2.42  0.  0.
244  2.43  0.  0.
245  2.44  0.  0.
246  2.45  0.  0.
247  2.46  0.  0.
248  2.47  0.  0.
249  2.48  0.  0.
250  2.49  0.  0.
251  2.50  0.  0.
252  2.51  0.  0.
253  2.52  0.  0.
254  2.53  0.  0.
255  2.54  0.  0.
256  2.55  0.  0.
257  2.56  0.  0.
258  2.57  0.  0.
259  2.58  0.  0.
260  2.59  0.  0.
261  2.60  0.  0.
262  2.61  0.  0.
263  2.62  0.  0.
264  2.63  0.  0.
265  2.64  0.  0.
266  2.65  0.  0.
267  2.66  0.  0.
268  2.67  0.  0.
269  2.68  0.  0.
270  2.69  0.  0.
271  2.70  0.  0.
272  2.71  0.  0.
273  2.72  0.  0.
274  2.73  0.  0.
275  2.74  0.  0.
276  2.75  0.  0.
277  2.76  0.  0.
278  2.77  0.  0.
279  2.78  0.  0.
280  2.79  0.  0.
281  2.80  0.  0.
282  2.81  0.  0.
283  2.82  0.  0.
284  2.83  0.  0.
285  2.84  0.  0.
286  2.85  0.  0.
287  2.86  0.  0.
288  2.87  0.  0.
289  2.88  0.  0.
290  2.89  0.  0.
291  2.90  0.  0.
292  2.91  0.  0.
293  2.92  0.  0.
294  2.93  0.  0.
295  2.94  0.  0.
296  2.95  0.  0.
297  2.96  0.  0.
298  2.97  0.  0.
299  2.98  0.  0.
300  2.99  0.  0.
301  3.00  0.  0.
302  3.01  0.  0.
303  3.02  0.  0.
304  3.03  0.  0.
305  3.04  0.  0.
306  3.05  0.  0.
307  3.06  0.  0.
308  3.07  0.  0.
309  3.08  0.  0.
310  3.09  0.  0.
311  3.10  0.  0.
312  3.11  0.  0.
313  3.12  0.  0.
314  3.13  0.  0.
315  3.14  0.  0.
316  3.15  0.  0.
317  3.16  0.  0.
318  3.17  0.  0.
319  3.18  0.  0.
320  3.19  0.  0.
321  3.20  0.  0.
322  3.21  0.  0.
323  3.22  0.  0.
324  3.23  0.  0.
325  3.24  0.  0.
326  3.25  0.  0.
327  3.26  0.  0.
328  3.27  0.  0.
329  3.28  0.  0.
330  3.29  0.  0.
331  3.30  0.  0.
332  3.31  0.  0.
333  3.32  0.  0.
334  3.33  0.  0.
335  3.34  0.  0.
336  3.35  0.  0.
337  3.36  0.  0.
338  3.37  0.  0.
339  3.38  0.  0.
340  3.39  0.  0.
341  3.40  0.  0.
342  3.41  0.  0.
343  3.42  0.  0.
344  3.43  0.  0.
345  3.44  0.  0.
346  3.45  0.  0.
347  3.46  0.  0.
348  3.47  0.  0.
349  3.48  0.  0.
350  3.49  0.  0.
351  3.50  0.  0.
352  3.51  0.  0.
353  3.52  0.  0.
354  3.53  0.  0.
355  3.54  0.  0.
356  3.55  0.  0.
357  3.56  0.  0.
358  3.57  0.  0.
359  3.58  0.  0.
360  3.59  0.  0.
361  3.60  0.  0.
362  3.61  0.  0.
363  3.62  0.  0.
364  3.63  0.  0.
365  3.64  0.  0.
366  3.65  0.  0.
367  3.66  0.  0.
368  3.67  0.  0.
369  3.68  0.  0.
370  3.69  0.  0.
371  3.70  0.  0.
372  3.71  0.  0.
373  3.72  0.  0.
374  3.73  0.  0.
375  3.74  0.  0.
376  3.75  0.  0.
377  3.76  0.  0.
378  3.77  0.  0.
379  3.78  0.  0.
380  3.79  0.  0.
381  3.80  0.  0.
382  3.81  0.  0.
383  3.82  0.  0.
384  3.83  0.  0.
385  3.84  0.  0.
386  3.85  0.  0.
387  3.86  0.  0.
388  3.87  0.  0.
389  3.88  0.  0.
390  3.89  0.  0.
391  3.90  0.  0.
392  3.91  0.  0.
393  3.92  0.  0.
394  3.93  0.  0.
395  3.94  0.  0.
396  3.95  0.  0.
397  3.96  0.  0.
398  3.97  0.  0.
399  3.98  0.  0.
400  3.99  0.  0.
401  4.00  0.  0.
402  4.01  0.  0.
403  4.02  0.  0.
404  4.03  0.  0.
405  4.04  0.  0.
406  4.05  0.  0.
407  4.06  0.  0.
408  4.07  0.  0.
409  4.08  0.  0.
410  4.09  0.  0.
411  4.10  0.  0.
412  4.11  0.  0.
413  4.12  0.  0.
414  4.13  0.  0.
415  4.14  0.  0.
416  4.15  0.  0.
417  4.16  0.  0.
418  4.17  0.  0.
419  4.18  0.  0.
420  4.19  0.  0.
421  4.20  0.  0.
422  4.21  0.  0.
423  4.22  0.  0.
424  4.23  0.  0.
425  4.24  0.  0.
426  4.25  0.  0.
427  4.26  0.  0.
428  4.27  0.  0.
429  4.28  0.  0.
430  4.29  0.  0.
431  4.30  0.  0.
432  4.31  0.  0.
433  4.32  0.  0.
434  4.33  0.  0.
435  4.34  0.  0.
436  4.35  0.  0.
437  4.36  0.  0.
438  4.37  0.  0.
439  4.38  0.  0.
440  4.39  0.  0.
441  4.40  0.  0.
442  4.41  0.  0.
443  4.42  0.  0.
444  4.43  0.  0.
445  4.44  0.  0.
446  4.45  0.  0.
447  4.46  0.  0.
448  4.47  0.  0.
449  4.48  0.  0.
450  4.49  0.  0.
451  4.50  0.  0.
452  4.51  0.  0.
453  4.52  0.  0.
454  4.53  0.  0.
455  4.54  0.  0.
456  4.55  0.  0.
457  4.56  0.  0.
458  4.57  0.  0.
459  4.58  0.  0.
460  4.59  0.  0.
461  4.60  0.  0.
462  4.61  0.  0.
463  4.62  0.  0.
464  4.63  0.  0.
465  4.64  0.  0.
466  4.65  0.  0.
467  4.66  0.  0.
468  4.67  0.  0.
469  4.68  0.  0.
470  4.69  0.  0.
471  4.70  0.  0.
472  4.71  0.  0.
473  4.72  0.  0.
474  4.73  0.  0.
475  4.74  0.  0.
476  4.75  0.  0.
477  4.76  0.  0.
478  4.77  0.  0.
479  4.78  0.  0.
480  4.79  0.  0.
481  4.80  0.  0.
482  4.81  0.  0.
483  4.82  0.  0.
484  4.83  0.  0.
485  4.84  0.  0.
486  4.85  0.  0.
487  4.86  0.  0.
488  4.87  0.  0.
489  4.88  0.  0.
490  4.89  0.  0.
491  4.90  0.  0.
492  4.91  0.  0.
493  4.92  0.  0.
494  4.93  0.  0.
495  4.94  0.  0.
496  4.95  0.  0.
497  4.96  0.  0.
498  4.97  0.  0.
499  4.98  0.  0.
500  4.99  0.  0.
501  5.00  0.  0.
502  5.01  0.  0.
503  5.02  0.  0.
504  5.03  0.  0.
505  5.04  0.  0.
506  5.05  0.  0.
507  5.06  0.  0.
508  5.07  0.  0.
509  5.08  0.  0.
510  5.09  0.  0.
511  5.10  0.  0.
512  5.11  0.  0.
513  5.12  0.  0.
514  5.13  0.  0.
515  5.14  0.  0.
516  5.15  0.  0.
517  5.16  0.  0.
518  5.17  0.  0.
519  5.18  0.  0.
520  5.19  0.  0.
521  5.20  0.  0.
522  5.21  0.  0.
523  5.22  0.  0.
524  5.23  0.  0.
525  5.24  0.  0.
526  5.25  0.  0.
527  5.26  0.  0.
528  5.27  0.  0.
529  5.28  0.  0.
530  5.29  0.  0.
531  5.30  0.  0.
532  5.31  0.  0.
533  5.32  0.  0.
534  5.33  0.  0.
535  5.34  0.  0.
536  5.35  0.  0.
537  5.36  0.  0.
538  5.37  0.  0.
539  5.38  0.  0.
540  5.39  0.  0.
541  5.40  0.  0.
542  5.41  0.  0.
543  5.42  0.  0.
544  5.43  0.  0.
545  5.44  0.  0.
546  5.45  0.  0.
547  5.46  0.  0.
548  5.47  0.  0.
549  5.48  0.  0.
550  5.49  0.  0.
551  5.50  0.  0.
552  5.51  0.  0.
553  5.52  0.  0.
554  5.53  0.  0.
555  5.54  0.  0.
556  5.55  0.  0.
557  5.56  0.  0.
558  5.57  0.  0.
559  5.58  0.  0.
560  5.59  0.  0.
561  5.60  0.  0.
562  5.61  0.  0.
563  5.62  0.  0.
564  5.63  0.  0.
565  5.64  0.  0.
566  5.65  0.  0.
567  5.66  0.  0.
568  5.67  0.  0.
569  5.68  0.  0.
570  5.69  0.  0.
571  5.70  0.  0.
572  5.71  0.  0.
573  5.72  0.  0.
574  5.73  0.  0.
575  5.74  0.  0.
576  5.75  0.  0.
577  5.76  0.  0.
578  5.77  0.  0.
579  5.78  0.  0.
580  5.79  0.  0.
581  5.80  0.  0.
582  5.81  0.  0.
583  5.82  0.  0.
584  5.83  0.  0.
585  5.84  0.  0.
586  5.85  0.  0.
587  5.86  0.  0.
588  5.87  0.  0.
589  5.88  0.  0.
590  5.89  0.  0.
591  5.90  0.  0.
592  5.91  0.  0.
593  5.92  0.  0.
594  5.93  0.  0.
595  5.94  0.  0.
596  5.95  0.  0.
597  5.96  0.  0.
598  5.97  0.  0.
599  5.98  0.  0.
600  5.99  0.  0.
1                         7.0046565763032E+00  3.4561461981194E-01
1  0.0000000000000E+00  3.7308739986308E-09 -2.5725289190537E-08
2  1.0000000000000E-02  1.2699305953611E-03 -1.5754330972418E-03
3  2.0000000000000E-02  5.0724454172109E-03 -6.2694640913638E-03
4  3.0000000000000E-02  1.1385819620315E-02 -1.3985992598846E-02
5  4.0000000000000E-02  2.0174196370383E-02 -2.4567184214914E-02
6  5.0000000000000E-02  3.1388105878481E-02 -3.7796916077090E-02
7  6.0000000000000E-02  4.4965176571731E-02 -5.3405494273274E-02
8  7.0000000000000E-02  6.0831023331709E-02 -7.1075539474554E-02
9  8.0000000000000E-02  7.8900294001018E-02 -9.0448911447683E-02
10  9.0000000000000E-02  9.9077852041182E-02 -1.1113452017196E-01
11  1.0000000000000E-01  1.2126007039472E-01 -1.3271685165016E-01
12  1.1000000000000E-01  1.4533620932392E-01 -1.5476502059009E-01
13  1.2000000000000E-01  1.7118984931935E-01 -1.7684215029232E-01
14  1.3000000000000E-01  1.9870034913072E-01 -1.9851487257271E-01
15  1.4000000000000E-01  2.2774429859498E-01 -2.1936273754630E-01
16  1.5000000000000E-01  2.5819693623225E-01 -2.3898732467536E-01
17  1.6000000000000E-01  2.8993350254284E-01 -2.5702085261559E-01
18  1.7000000000000E-01  3.2283050155059E-01 -2.7313409596015E-01
19  1.8000000000000E-01  3.5676684536366E-01 -2.8704343176248E-01
20  1.9000000000000E-01  3.9162485931750E-01 -2.9851685741106E-01
21  2.0000000000000E-01  4.2729112856559E-01 -3.0737884363770E-01
22  2.1000000000000E-01  4.6365717072115E-01 -3.1351391169831E-01
23  2.2000000000000E-01  5.0061992324520E-01 -3.1686885153425E-01
24  2.3000000000000E-01  5.3808203863523E-01 -3.1745352741345E-01
25  2.4000000000000E-01  5.7595198499782E-01 -3.1534024852607E-01
26  2.5000000000000E-01  6.1414395418872E-01 -3.1066171360646E-01
27  2.6000000000000E-01  6.5257758427295E-01 -3.0360757018930E-01
28  2.7000000000000E-01  6.9117750749414E-01 -2.9441965989938E-01
29  2.8000000000000E-01  7.2987273914620E-01 -2.8338605055328E-01
30  2.9000000000000E-01  7.6859592661816E-01 -2.7083398317159E-01
31  3.0000000000000E-01  8.0728248134345E-01 -2.5712188666272E-01
32  3.1000000000000E-01  8.4586961935110E-01 -2.4263063439367E-01
33  3.2000000000000E-01  8.8429533851556E-01 -2.2775423462856E-01
34  3.3000000000000E-01  9.2249736237794E-01 -2.1289016048583E-01
35  3.4000000000000E-01  9.6041208151910E-01 -1.9842953432091E-01
36  3.5000000000000E-01  9.9797352387318E-01 -1.8474738605451E-01
37  3.6000000000000E-01  1.0351123850638E+00 -1.7219320481101E-01
38  3.7000000000000E-01  1.0717551488237E+00 -1.6108199827781E-01
39  3.8000000000000E-01  1.1078233258391E+00 -1.5168606452335E-01
40  3.9000000000000E-01  1.1432328369683E+00 -1.4422766679557E-01
41  4.0000000000000E-01  1.1778935637764E+00 -1.3887278334182E-01
42  4.1000000000000E-01  1.2117090857493E+00 -1.3572608191686E-01
43  4.2000000000000E-01  1.2445766194875E+00 -1.3482724283404E-01
44  4.3000000000000E-01  1.2763871707088E+00 -1.3614872570174E-01
45  4.4000000000000E-01  1.3070259051050E+00 -1.3959504397263E-01
46  4.5000000000000E-01  1.3363727391025E+00 -1.4500357877374E-01
47  4.6000000000000E-01  1.3643031464797E+00 -1.5214692987421E-01
48  4.7000000000000E-01  1.3906891717018E+00 -1.6073676780849E-01
49  4.8000000000000E-01  1.4154006358606E+00 -1.7042911783593E-01
50  4.9000000000000E-01  1.4383065163629E+00 -1.8083097431080E-01
51  5.0000000000000E-01  1.4592764771030E+00 -1.9150811386581E-01
52  5.1000000000000E-01  1.4781825218818E+00 -2.0199394824870E-01
53  5.2000000000000E-01  1.4949007403910E+00 -2.1179923331157E-01
54  5.3000000000000E-01  1.5093131132474E+00 -2.2042243009785E-01
55  5.4000000000000E-01  1.5213093404082E+00 -2.2736049767299E-01
56  5.5000000000000E-01  1.5307886558795E+00 -2.3211988569935E-01
57  5.6000000000000E-01  1.5376615909900E+00 -2.3422748805300E-01
58  5.7000000000000E-01  1.5418516486590E+00 -2.3324131721081E-01
59  5.8000000000000E-01  1.5432968520571E+00 -2.2876066278150E-01
60  5.9000000000000E-01  1.5419511328210E+00 -2.2043550638090E-01
61  6.0000000000000E-01  1.5377855265218E+00 -2.0797497891751E-01
62  6.1000000000000E-01  1.5307891463497E+00 -1.9115466500473E-01
63  6.2000000000000E-01  1.5209699099065E+00 -1.6982258229162E-01
64  6.3000000000000E-01  1.5083549985207E+00 -1.4390369054621E-01
65  6.4000000000000E-01  1.4929910335238E+00 -1.1340281578707E-01
66  6.5000000000000E-01  1.4749439593550E+00 -7.8405908011521E-02
67  6.6000000000000E-01  1.4542986290787E+00 -3.9079586420635E-02
68  6.7000000000000E-01  1.4311580937963E+00  4.3310372530165E-03
69  6.8000000000000E-01  1.4056426033778E+00  5.1506229428497E-02
70  6.9000000000000E-01  1.3778883318133E+00  1.0205713443311E-01
71  7.0000000000000E-01  1.3480458461593E+00  1.5553280236897E-01
72  7.1000000000000E-01  1.3162783434105E+00  2.1142860992123E-01
73  7.2000000000000E-01  1.2827596845458E+00  2.6919590730221E-01
74  7.3000000000000E-01  1.2476722593752E+00  3.2825269617062E-01
75  7.4000000000000E-01  1.2112047195428E+00  3.8799511892787E-01
76  7.5000000000000E-01  1.1735496200524E+00  4.4780951984206E-01
77  7.6000000000000E-01  1.1349010118863E+00  5.0708482345256E-01
78  7.7000000000000E-01  1.0954520296489E+00  5.6522496603654E-01
79  7.8000000000000E-01  1.0553925186359E+00  6.2166111182649E-01
80  7.9000000000000E-01  1.0149067452953E+00  6.7586338729890E-01
81  8.0000000000000E-01  9.7417123370817E-01  7.2735187422192E-01
82  8.1000000000000E-01  9.3335276849510E-01  7.7570661515186E-01
83  8.2000000000000E-01  8.9260660148742E-01  8.2057640347706E-01
84  8.3000000000000E-01  8.5207489565126E-01  8.6168615357666E-01
85  8.4000000000000E-01  8.1188543518603E-01  8.9884267473934E-01
86  8.5000000000000E-01  7.7215062553317E-01  9.3193870461234E-01
87  8.6000000000000E-01  7.3296680132495E-01  9.6095509348100E-01
88  8.7000000000000E-01  6.9441385419512E-01  9.8596106888625E-01
89  8.8000000000000E-01  6.5655518598471E-01  1.0071125501908E+00
90  8.9000000000000E-01  6.1943798634080E-01  1.0246485238711E+00
91  9.0000000000000E-01  5.8309382715522E-01  1.0388855316879E+00
92  9.1000000000000E-01  5.4753955986053E-01  1.0502103646086E+00
93  9.2000000000000E-01  5.1277849542509E-01  1.0590710945560E+00
94  9.3000000000000E-01  4.7880184109386E-01  1.0659666129351E+00
95  9.4000000000000E-01  4.4559036262887E-01  1.0714348786317E+00
96  9.5000000000000E-01  4.1311623612101E-01  1.0760401080970E+00
97  9.6000000000000E-01  3.8134504947075E-01  1.0803591655687E+00
98  9.7000000000000E-01  3.5023791045161E-01  1.0849674318996E+00
99  9.8000000000000E-01  3.1975361594162E-01  1.0904244454158E+00
100  9.9000000000000E-01  2.8985083548310E-01  1.0972596173906E+00
101  1.0000000000000E+00  2.6049026183883E-01  1.1059583278602E+00
102  1.0100000000000E+00  2.3163668166165E-01  1.1169487045713E+00
103  1.0200000000000E+00  2.0326092077519E-01  1.1305893788381E+00
104  1.0300000000000E+00  1.7534162084915E-01  1.1471584971690E+00
105  1.0400000000000E+00  1.4786680739113E-01  1.1668442469892E+00
106  1.0500000000000E+00  1.2083521290872E-01  1.1897371289965E+00
107  1.0600000000000E+00  9.4257323743489E-02  1.2158241781134E+00
108  1.0700000000000E+00  6.8156124334847E-02  1.2449853003061E+00
109  1.0800000000000E+00  4.2567518458341E-02  1.2769918542010E+00
110  1.0900000000000E+00  1.7540413158855E-02  1.3115075653466E+00
111  1.1000000000000E+00 -6.8635424362822E-03  1.3480918177470E+00
112  1.1100000000000E+00 -3.0570564606154E-02  1.3862053227090E+00
113  1.1200000000000E+00 -5.3495683354711E-02  1.4252181200316E+00
114  1.1300000000000E+00 -7.5544019481950E-02  1.4644198215506E+00
115  1.1400000000000E+00 -9.6612371957884E-02  1.5030319632318E+00
116  1.1500000000000E+00 -1.1659109103135E-01  1.5402222894902E+00
117  1.1600000000000E+00 -1.3536620682710E-01  1.5751207534249E+00
118  1.1700000000000E+00 -1.5282177793766E-01  1.6068369791164E+00
119  1.1800000000000E+00 -1.6884241985015E-01  1.6344788980350E+00
120  1.1900000000000E+00 -1.8331596894568E-01  1.6571722408157E+00
121  1.2000000000000E+00 -1.9613623434913E-01  1.6740805387194E+00
122  1.2100000000000E+00 -2.0720578708017E-01  1.6844252659485E+00
123  1.2200000000000E+00 -2.1643873375722E-01  1.6875057345865E+00
124  1.2300000000000E+00 -2.2376342052501E-01  1.6827183382893E+00
125  1.2400000000000E+00 -2.2912501184423E-01  1.6695747284437E+00
126  1.2500000000000E+00 -2.3248788825707E-01  1.6477184971805E+00
127  1.2600000000000E+00 -2.3383780712652E-01  1.6169399346903E+00
128  1.2700000000000E+00 -2.3318377055069E-01  1.5771884231838E+00
129  1.2800000000000E+00 -2.3055954505492E-01  1.5285820258480E+00
130  1.2900000000000E+00 -2.2602477813822E-01  1.4714138254253E+00
131  1.3000000000000E+00 -2.1966565715542E-01  1.4061545626959E+00
132  1.3100000000000E+00 -2.1159505619547E-01  1.3334511192173E+00
133  1.3200000000000E+00 -2.0195211641916E-01  1.2541203801867E+00
134  1.3300000000000E+00 -1.9090120456718E-01  1.1691380010776E+00
135  1.3400000000000E+00 -1.7863019287632E-01  1.0796215847750E+00
136  1.3500000000000E+00 -1.6534800128648E-01  9.8680775325316E-01
137  1.3600000000000E+00 -1.5128133938511E-01  8.9202256809894E-01
138  1.3700000000000E+00 -1.3667058086707E-01  7.9664471651191E-01
139  1.3800000000000E+00 -1.2176469644178E-01  7.0206082172175E-01
140  1.3900000000000E+00 -1.0681516286255E-01  6.0961217626874E-01
141  1.4000000000000E+00 -9.2068808538549E-02  5.2053283197436E-01
142  1.4100000000000E+00 -7.7759540906419E-02  4.3587898001629E-01
143  1.4200000000000E+00 -6.4106219482067E-02  3.5655043885918E-01
144  1.4300000000000E+00 -5.1316965728646E-02  2.8339155361292E-01
145  1.4400000000000E+00 -3.9588368908569E-02  2.1720191581402E-01
146  1.4500000000000E+00 -2.9103624442054E-02  1.5872603286539E-01
147  1.4600000000000E+00 -2.0028621862427E-02  1.0863413909105E-01
148  1.4700000000000E+00 -1.2509078123602E-02  6.7505875855604E-02
149  1.4800000000000E+00 -6.6692388854545E-03  3.5822924488363E-02