Dy    ONCVPSP-4.0.1  r_core=   2.00176   1.60430   1.90822   1.50213
66.0000     20.0000      241104    zatom,zion,pspd
8      11   3     4   600     0    pspcod,pspxc,lmax,lloc,mmax,r2well
5.99000000  4.00000000  0.00000000    rchrg fchrg qchrg
2     2     2     2     0    nproj
1     1           extension_switch
0                         6.7906886263876E+00  7.5798162296695E-01
1  0.0000000000000E+00  8.6070983673636E-11 -2.7293574345055E-10
2  1.0000000000000E-02  4.2319028396555E-02 -2.9583350911595E-03
3  2.0000000000000E-02  8.4613824813619E-02 -5.9497673735770E-03
4  3.0000000000000E-02  1.2685997793766E-01 -9.0067909284940E-03
5  4.0000000000000E-02  1.6903272003800E-01 -1.2160700390732E-02
6  5.0000000000000E-02  2.1110675436353E-01 -1.5441008089604E-02
7  6.0000000000000E-02  2.5305608920439E-01 -1.8874881231684E-02
8  7.0000000000000E-02  2.9485388073825E-01 -2.2486605482910E-02
9  8.0000000000000E-02  3.3647228669512E-01 -2.6297081034572E-02
10  9.0000000000000E-02  3.7788233276809E-01 -3.0323356901576E-02
11  1.0000000000000E-01  4.1905379357262E-01 -3.4578208805149E-02
12  1.1000000000000E-01  4.5995508981377E-01 -3.9069765540012E-02
13  1.2000000000000E-01  5.0055320316111E-01 -4.3801188221907E-02
14  1.3000000000000E-01  5.4081361015656E-01 -4.8770406260760E-02
15  1.4000000000000E-01  5.8070023629220E-01 -5.3969913312459E-02
16  1.5000000000000E-01  6.2017543119501E-01 -5.9386625834609E-02
17  1.6000000000000E-01  6.5919996564615E-01 -6.5001806214465E-02
18  1.7000000000000E-01  6.9773305094467E-01 -7.0791051757164E-02
19  1.8000000000000E-01  7.3573238090187E-01 -7.6724350126481E-02
20  1.9000000000000E-01  7.7315419652584E-01 -8.2766201124633E-02
21  2.0000000000000E-01  8.0995337322655E-01 -8.8875803990650E-02
22  2.1000000000000E-01  8.4608353014381E-01 -9.5007308694092E-02
23  2.2000000000000E-01  8.8149716097514E-01 -1.0111012901085E-01
24  2.3000000000000E-01  9.1614578545979E-01 -1.0712931449665E-01
25  2.4000000000000E-01  9.4998012046206E-01 -1.1300597782899E-01
26  2.5000000000000E-01  9.8295026939218E-01 -1.1867777337624E-01
27  2.6000000000000E-01  1.0150059285103E+00 -1.2407942227973E-01
28  2.7000000000000E-01  1.0460966084786E+00 -1.2914327880742E-01
29  2.8000000000000E-01  1.0761718693603E+00 -1.3379993226117E-01
30  2.9000000000000E-01  1.1051815671177E+00 -1.3797883829974E-01
31  3.0000000000000E-01  1.1330761095263E+00 -1.4160897318066E-01
32  3.1000000000000E-01  1.1598067193148E+00 -1.4461950413001E-01
33  3.2000000000000E-01  1.1853257022452E+00 -1.4694046882433E-01
34  3.3000000000000E-01  1.2095867177812E+00 -1.4850345681519E-01
35  3.4000000000000E-01  1.2325450499427E+00 -1.4924228564733E-01
36  3.5000000000000E-01  1.2541578759203E+00 -1.4909366441678E-01
37  3.6000000000000E-01  1.2743845300230E+00 -1.4799783758722E-01
38  3.7000000000000E-01  1.2931867605540E+00 -1.4589920203028E-01
39  3.8000000000000E-01  1.3105289772523E+00 -1.4274689047863E-01
40  3.9000000000000E-01  1.3263784870099E+00 -1.3849531487700E-01
41  4.0000000000000E-01  1.3407057156616E+00 -1.3310466348455E-01
42  4.1000000000000E-01  1.3534844137588E+00 -1.2654134601799E-01
43  4.2000000000000E-01  1.3646918443695E+00 -1.1877838162576E-01
44  4.3000000000000E-01  1.3743089511029E+00 -1.0979572504410E-01
45  4.4000000000000E-01  1.3823205047232E+00 -9.9580526901477E-02
46  4.5000000000000E-01  1.3887152269087E+00 -8.8127324802438E-02
47  4.6000000000000E-01  1.3934858899130E+00 -7.5438162528873E-02
48  4.7000000000000E-01  1.3966293910992E+00 -6.1522635439811E-02
49  4.8000000000000E-01  1.3981468015464E+00 -4.6397860922128E-02
50  4.9000000000000E-01  1.3980433881631E+00 -3.0088373536523E-02
51  5.0000000000000E-01  1.3963286089800E+00 -1.2625945307873E-02
52  5.1000000000000E-01  1.3930160815469E+00  5.9506675819524E-03
53  5.2000000000000E-01  1.3881235245994E+00  2.5596049635760E-02
54  5.3000000000000E-01  1.3816726734137E+00  4.6258519561582E-02
55  5.4000000000000E-01  1.3736891695071E+00  6.7880588845017E-02
56  5.5000000000000E-01  1.3642024255852E+00  9.0399481004408E-02
57  5.6000000000000E-01  1.3532454668623E+00  1.1374770645473E-01
58  5.7000000000000E-01  1.3408547501058E+00  1.3785368724766E-01
59  5.8000000000000E-01  1.3270699619616E+00  1.6264242534788E-01
60  5.9000000000000E-01  1.3119337983101E+00  1.8803620756003E-01
61  6.0000000000000E-01  1.2954917265827E+00  2.1395533974014E-01
62  6.1000000000000E-01  1.2777917331219E+00  2.4031890251720E-01
63  6.2000000000000E-01  1.2588840578120E+00  2.6704552042084E-01
64  6.3000000000000E-01  1.2388209183205E+00  2.9405413606120E-01
65  6.4000000000000E-01  1.2176562263872E+00  3.2126478084494E-01
66  6.5000000000000E-01  1.1954452986680E+00  3.4859933363530E-01
67  6.6000000000000E-01  1.1722445646857E+00  3.7598225877965E-01
68  6.7000000000000E-01  1.1481112744647E+00  4.0334131503357E-01
69  6.8000000000000E-01  1.1231032084189E+00  4.3060822710714E-01
70  6.9000000000000E-01  1.0972783920378E+00  4.5771931184606E-01
71  7.0000000000000E-01  1.0706948178577E+00  4.8461605143445E-01
72  7.1000000000000E-01  1.0434101771313E+00  5.1124560646624E-01
73  7.2000000000000E-01  1.0154816035053E+00  5.3756126227237E-01
74  7.3000000000000E-01  9.8696543089265E-01  5.6352280250865E-01
75  7.4000000000000E-01  9.5791696757959E-01  5.8909680469764E-01
76  7.5000000000000E-01  9.2839028844720E-01  6.1425685316977E-01
77  7.6000000000000E-01  8.9843804699882E-01  6.3898366566069E-01
78  7.7000000000000E-01  8.6811130869061E-01  6.6326513068059E-01
79  7.8000000000000E-01  8.3745940684680E-01  6.8709625367424E-01
80  7.9000000000000E-01  8.0652982221749E-01  7.1047901092416E-01
81  8.0000000000000E-01  7.7536808700155E-01  7.3342211110857E-01
82  8.1000000000000E-01  7.4401771391534E-01  7.5594066539802E-01
83  8.2000000000000E-01  7.1252015064052E-01  7.7805576795296E-01
84  8.3000000000000E-01  6.8091475973449E-01  7.9979398965769E-01
85  8.4000000000000E-01  6.4923882383682E-01  8.2118678888566E-01
86  8.5000000000000E-01  6.1752757575681E-01  8.4226984402704E-01
87  8.6000000000000E-01  5.8581425278339E-01  8.6308231341415E-01
88  8.7000000000000E-01  5.5413017432144E-01  8.8366602914296E-01
89  8.8000000000000E-01  5.2250484172908E-01  9.0406463210426E-01
90  8.9000000000000E-01  4.9096605901254E-01  9.2432265629561E-01
91  9.0000000000000E-01  4.5954007282791E-01  9.4448457118163E-01
92  9.1000000000000E-01  4.2825173004653E-01  9.6459379149525E-01
93  9.2000000000000E-01  3.9712465096232E-01  9.8469166442530E-01
94  9.3000000000000E-01  3.6618141605720E-01  1.0048164446085E+00
95  9.4000000000000E-01  3.3544376409529E-01  1.0250022677341E+00
96  9.5000000000000E-01  3.0493279918873E-01  1.0452781338766E+00
97  9.6000000000000E-01  2.7466920436790E-01  1.0656669118867E+00
98  9.7000000000000E-01  2.4467345909695E-01  1.0861843763066E+00
99  9.8000000000000E-01  2.1496605810196E-01  1.1068382883128E+00
100  9.9000000000000E-01  1.8556772882348E-01  1.1276275321460E+00
101  1.0000000000000E+00  1.5649964476700E-01  1.1485413183578E+00
102  1.0100000000000E+00  1.2778363200482E-01  1.1695584649826E+00
103  1.0200000000000E+00  9.9442366078560E-02  1.1906467674469E+00
104  1.0300000000000E+00  7.1499556564187E-02  1.2117624676475E+00
105  1.0400000000000E+00  4.3980116589467E-02  1.2328498321734E+00
106  1.0500000000000E+00  1.6910314636800E-02  1.2538408491118E+00
107  1.0600000000000E+00 -9.6820939780044E-03  1.2746550522803E+00
108  1.0700000000000E+00 -3.5767758488584E-02  1.2951994810475E+00
109  1.0800000000000E+00 -6.1315649374510E-02  1.3153687831681E+00
110  1.0900000000000E+00 -8.6293002723552E-02  1.3350454672466E+00
111  1.1000000000000E+00 -1.1066529449810E-01  1.3541003105746E+00
112  1.1100000000000E+00 -1.3439624681549E-01  1.3723929271399E+00
113  1.1200000000000E+00 -1.5744786820731E-01  1.3897724996031E+00
114  1.1300000000000E+00 -1.7978052966182E-01  1.4060786779542E+00
115  1.1400000000000E+00 -2.0135307807244E-01  1.4211426464039E+00
116  1.1500000000000E+00 -2.2212298851487E-01  1.4347883588347E+00
117  1.1600000000000E+00 -2.4204655654876E-01  1.4468339418002E+00
118  1.1700000000000E+00 -2.6107913148864E-01  1.4570932626463E+00
119  1.1800000000000E+00 -2.7917539130376E-01  1.4653776587843E+00
120  1.1900000000000E+00 -2.9628965948832E-01  1.4714978224936E+00
121  1.2000000000000E+00 -3.1237626388329E-01  1.4752658338319E+00
122  1.2100000000000E+00 -3.2738993702460E-01  1.4764973322764E+00
123  1.2200000000000E+00 -3.4128625713552E-01  1.4750138155992E+00
124  1.2300000000000E+00 -3.5402212836114E-01  1.4706450521438E+00
125  1.2400000000000E+00 -3.6555629826113E-01  1.4632315901362E+00
126  1.2500000000000E+00 -3.7584990991732E-01  1.4526273448738E+00
127  1.2600000000000E+00 -3.8486708526985E-01  1.4387022415626E+00
128  1.2700000000000E+00 -3.9257553546630E-01  1.4213448882345E+00
129  1.2800000000000E+00 -3.9894719307017E-01  1.4004652494616E+00
130  1.2900000000000E+00 -4.0395885993033E-01  1.3759972875357E+00
131  1.3000000000000E+00 -4.0759286335021E-01  1.3479015333369E+00
132  1.3100000000000E+00 -4.0983771189260E-01  1.3161675442146E+00
133  1.3200000000000E+00 -4.1068874071572E-01  1.2808162008500E+00
134  1.3300000000000E+00 -4.1014873474227E-01  1.2419017892123E+00
135  1.3400000000000E+00 -4.0822851620129E-01  1.1995138073080E+00
136  1.3500000000000E+00 -4.0494748113960E-01  1.1537784294101E+00
137  1.3600000000000E+00 -4.0033406737005E-01  1.1048595528244E+00
138  1.3700000000000E+00 -3.9442613399351E-01  1.0529593439585E+00
139  1.3800000000000E+00 -3.8727123007616E-01  9.9831819140623E-01
140  1.3900000000000E+00 -3.7892672728265E-01  9.4121396396638E-01
141  1.4000000000000E+00 -3.6945978824209E-01  8.8196046089731E-01
142  1.4100000000000E+00 -3.5894713913367E-01  8.2090493020135E-01
143  1.4200000000000E+00 -3.4747461143300E-01  7.5842451835991E-01
144  1.4300000000000E+00 -3.3513641389033E-01  6.9492150146911E-01
145  1.4400000000000E+00 -3.2203409167049E-01  6.3081713333163E-01
146  1.4500000000000E+00 -3.0827512509773E-01  5.6654393048913E-01
147  1.4600000000000E+00 -2.9397111561822E-01  5.0253619742789E-01
148  1.4700000000000E+00 -2.7923550141880E-01  4.3921857725841E-01
149  1.4800000000000E+00 -2.6418073832769E-01  3.7699238692036E-01
150  1.4900000000000E+00 -2.4891487741679E-01  3.1621948652464E-01
151  1.5000000000000E+00 -2.3353751930774E-01  2.5720370867425E-01
152  1.5100000000000E+00 -2.1813506150656E-01  2.0016956667485E-01
153  1.5200000000000E+00 -2.0278263232226E-01  1.4527930792346E-01
154  1.5300000000000E+00 -1.8755161038113E-01  9.2678867402596E-02
155  1.5400000000000E+00 -1.7251101782690E-01  4.2506909430804E-02
156  1.5500000000000E+00 -1.5772704380851E-01 -5.1069413914127E-03
157  1.5600000000000E+00 -1.4326268370128E-01 -5.0043242960974E-02
158  1.5700000000000E+00 -1.2917738230001E-01 -9.2193900919470E-02
159  1.5800000000000E+00 -1.1552669946333E-01 -1.3146325708225E-01
160  1.5900000000000E+00 -1.0236200096179E-01 -1.6776909252113E-01
161  1.6000000000000E+00 -8.9730177548749E-02 -2.0104353469063E-01
162  1.6100000000000E+00 -7.7673395118424E-02 -2.3123385841563E-01
163  1.6200000000000E+00 -6.6228878415169E-02 -2.5830317218979E-01
164  1.6300000000000E+00 -5.5428730764594E-02 -2.8223098077618E-01
165  1.6400000000000E+00 -4.5299791610286E-02 -3.0301361808197E-01
166  1.6500000000000E+00 -3.5863533623739E-02 -3.2066454387575E-01
167  1.6600000000000E+00 -2.7136000727101E-02 -3.3521449953828E-01
168  1.6700000000000E+00 -1.9127787897319E-02 -3.4671151985601E-01
169  1.6800000000000E+00 -1.1844063397696E-02 -3.5522079842745E-01
170  1.6900000000000E+00 -5.2846335939289E-03 -3.6082440612257E-01
171  1.7000000000000E+00  5.5594981970329E-04 -3.6362086312405E-01
172  1.7100000000000E+00  5.6882407643003E-03 -3.6372456653141E-01
173  1.7200000000000E+00  1.0127708879472E-02 -3.6126507697162E-01
174  1.7300000000000E+00  1.3894510117036E-02 -3.5638626882097E-01
175  1.7400000000000E+00  1.7013219563185E-02 -3.4924535011468E-01
176  1.7500000000000E+00  1.9512528562495E-02 -3.4001175937901E-01
177  1.7600000000000E+00  2.1424908576330E-02 -3.2886594790475E-01
178  1.7700000000000E+00  2.2786244518263E-02 -3.1599805706416E-01
179  1.7800000000000E+00  2.3635440599283E-02 -3.0160650129067E-01
180  1.7900000000000E+00  2.4014002010730E-02 -2.8589646840598E-01
181  1.8000000000000E+00  2.3965595993562E-02 -2.6907834973845E-01
182  1.8100000000000E+00  2.3535596048414E-02 -2.5136611320231E-01
183  1.8200000000000E+00  2.2770613235822E-02 -2.3297563321334E-01
184  1.8300000000000E+00  2.1718018644931E-02 -2.1412299176402E-01
185  1.8400000000000E+00  2.0425461196219E-02 -1.9502276527868E-01
186  1.8500000000000E+00  1.8940385034900E-02 -1.7588631221676E-01
187  1.8600000000000E+00  1.7309550795052E-02 -1.5692007647211E-01
188  1.8700000000000E+00  1.5578566649716E-02 -1.3832392611911E-01
189  1.8800000000000E+00  1.3791414304162E-02 -1.2028948771104E-01
190  1.8900000000000E+00  1.1990057588319E-02 -1.0299873012268E-01
191  1.9000000000000E+00  1.0213934738165E-02 -8.6622238989259E-02
192  1.9100000000000E+00  8.4983149961340E-03 -7.1314103485299E-02
193  1.9200000000000E+00  6.8746852139023E-03 -5.7212771395136E-02
194  1.9300000000000E+00  5.3740319365216E-03 -4.4450591753326E-02
195  1.9400000000000E+00  4.0232426031791E-03 -3.3143190449422E-02
196  1.9500000000000E+00  2.8448988934317E-03 -2.3388683502843E-02
197  1.9600000000000E+00  1.8570360346124E-03 -1.5266825488717E-02
198  1.9700000000000E+00  1.0732363791879E-03 -8.8406765628699E-03
199  1.9800000000000E+00  5.0021990543651E-04 -4.1368581889830E-03
200  1.9900000000000E+00  1.4527248457185E-04 -1.2087704797640E-03
201  2.0000000000000E+00  7.9143792451758E-06 -6.6422514056562E-05
202  2.0100000000000E+00 -4.7981967923525E-06  4.0357755411600E-05
203  2.0200000000000E+00  2.1726397784955E-06 -1.8169947910464E-05
204  2.03 -0.  0.
205  2.04 -0. -0.
206  2.05 -0. -0.
207  2.06  0.  0.
208  2.07  0.  0.
209  2.08  0.  0.
210  2.09  0.  0.
211  2.10  0.  0.
212  2.11  0.  0.
213  2.12  0.  0.
214  2.13  0.  0.
215  2.14  0.  0.
216  2.15  0.  0.
217  2.16  0.  0.
218  2.17  0.  0.
219  2.18  0.  0.
220  2.19  0.  0.
221  2.20  0.  0.
222  2.21  0.  0.
223  2.22  0.  0.
224  2.23  0.  0.
225  2.24  0.  0.
226  2.25  0.  0.
227  2.26  0.  0.
228  2.27  0.  0.
229  2.28  0.  0.
230  2.29  0.  0.
231  2.30  0.  0.
232  2.31  0.  0.
233  2.32  0.  0.
234  2.33  0.  0.
235  2.34  0.  0.
236  2.35  0.  0.
237  2.36  0.  0.
238  2.37  0.  0.
239  2.38  0.  0.
240  2.39  0.  0.
241  2.40  0.  0.
242  2.41  0.  0.
243  2.42  0.  0.
244  2.43  0.  0.
245  2.44  0.  0.
246  2.45  0.  0.
247  2.46  0.  0.
248  2.47  0.  0.
249  2.48  0.  0.
250  2.49  0.  0.
251  2.50  0.  0.
252  2.51  0.  0.
253  2.52  0.  0.
254  2.53  0.  0.
255  2.54  0.  0.
256  2.55  0.  0.
257  2.56  0.  0.
258  2.57  0.  0.
259  2.58  0.  0.
260  2.59  0.  0.
261  2.60  0.  0.
262  2.61  0.  0.
263  2.62  0.  0.
264  2.63  0.  0.
265  2.64  0.  0.
266  2.65  0.  0.
267  2.66  0.  0.
268  2.67  0.  0.
269  2.68  0.  0.
270  2.69  0.  0.
271  2.70  0.  0.
272  2.71  0.  0.
273  2.72  0.  0.
274  2.73  0.  0.
275  2.74  0.  0.
276  2.75  0.  0.
277  2.76  0.  0.
278  2.77  0.  0.
279  2.78  0.  0.
280  2.79  0.  0.
281  2.80  0.  0.
282  2.81  0.  0.
283  2.82  0.  0.
284  2.83  0.  0.
285  2.84  0.  0.
286  2.85  0.  0.
287  2.86  0.  0.
288  2.87  0.  0.
289  2.88  0.  0.
290  2.89  0.  0.
291  2.90  0.  0.
292  2.91  0.  0.
293  2.92  0.  0.
294  2.93  0.  0.
295  2.94  0.  0.
296  2.95  0.  0.
297  2.96  0.  0.
298  2.97  0.  0.
299  2.98  0.  0.
300  2.99  0.  0.
301  3.00  0.  0.
302  3.01  0.  0.
303  3.02  0.  0.
304  3.03  0.  0.
305  3.04  0.  0.
306  3.05  0.  0.
307  3.06  0.  0.
308  3.07  0.  0.
309  3.08  0.  0.
310  3.09  0.  0.
311  3.10  0.  0.
312  3.11  0.  0.
313  3.12  0.  0.
314  3.13  0.  0.
315  3.14  0.  0.
316  3.15  0.  0.
317  3.16  0.  0.
318  3.17  0.  0.
319  3.18  0.  0.
320  3.19  0.  0.
321  3.20  0.  0.
322  3.21  0.  0.
323  3.22  0.  0.
324  3.23  0.  0.
325  3.24  0.  0.
326  3.25  0.  0.
327  3.26  0.  0.
328  3.27  0.  0.
329  3.28  0.  0.
330  3.29  0.  0.
331  3.30  0.  0.
332  3.31  0.  0.
333  3.32  0.  0.
334  3.33  0.  0.
335  3.34  0.  0.
336  3.35  0.  0.
337  3.36  0.  0.
338  3.37  0.  0.
339  3.38  0.  0.
340  3.39  0.  0.
341  3.40  0.  0.
342  3.41  0.  0.
343  3.42  0.  0.
344  3.43  0.  0.
345  3.44  0.  0.
346  3.45  0.  0.
347  3.46  0.  0.
348  3.47  0.  0.
349  3.48  0.  0.
350  3.49  0.  0.
351  3.50  0.  0.
352  3.51  0.  0.
353  3.52  0.  0.
354  3.53  0.  0.
355  3.54  0.  0.
356  3.55  0.  0.
357  3.56  0.  0.
358  3.57  0.  0.
359  3.58  0.  0.
360  3.59  0.  0.
361  3.60  0.  0.
362  3.61  0.  0.
363  3.62  0.  0.
364  3.63  0.  0.
365  3.64  0.  0.
366  3.65  0.  0.
367  3.66  0.  0.
368  3.67  0.  0.
369  3.68  0.  0.
370  3.69  0.  0.
371  3.70  0.  0.
372  3.71  0.  0.
373  3.72  0.  0.
374  3.73  0.  0.
375  3.74  0.  0.
376  3.75  0.  0.
377  3.76  0.  0.
378  3.77  0.  0.
379  3.78  0.  0.
380  3.79  0.  0.
381  3.80  0.  0.
382  3.81  0.  0.
383  3.82  0.  0.
384  3.83  0.  0.
385  3.84  0.  0.
386  3.85  0.  0.
387  3.86  0.  0.
388  3.87  0.  0.
389  3.88  0.  0.
390  3.89  0.  0.
391  3.90  0.  0.
392  3.91  0.  0.
393  3.92  0.  0.
394  3.93  0.  0.
395  3.94  0.  0.
396  3.95  0.  0.
397  3.96  0.  0.
398  3.97  0.  0.
399  3.98  0.  0.
400  3.99  0.  0.
401  4.00  0.  0.
402  4.01  0.  0.
403  4.02  0.  0.
404  4.03  0.  0.
405  4.04  0.  0.
406  4.05  0.  0.
407  4.06  0.  0.
408  4.07  0.  0.
409  4.08  0.  0.
410  4.09  0.  0.
411  4.10  0.  0.
412  4.11  0.  0.
413  4.12  0.  0.
414  4.13  0.  0.
415  4.14  0.  0.
416  4.15  0.  0.
417  4.16  0.  0.
418  4.17  0.  0.
419  4.18  0.  0.
420  4.19  0.  0.
421  4.20  0.  0.
422  4.21  0.  0.
423  4.22  0.  0.
424  4.23  0.  0.
425  4.24  0.  0.
426  4.25  0.  0.
427  4.26  0.  0.
428  4.27  0.  0.
429  4.28  0.  0.
430  4.29  0.  0.
431  4.30  0.  0.
432  4.31  0.  0.
433  4.32  0.  0.
434  4.33  0.  0.
435  4.34  0.  0.
436  4.35  0.  0.
437  4.36  0.  0.
438  4.37  0.  0.
439  4.38  0.  0.
440  4.39  0.  0.
441  4.40  0.  0.
442  4.41  0.  0.
443  4.42  0.  0.
444  4.43  0.  0.
445  4.44  0.  0.
446  4.45  0.  0.
447  4.46  0.  0.
448  4.47  0.  0.
449  4.48  0.  0.
450  4.49  0.  0.
451  4.50  0.  0.
452  4.51  0.  0.
453  4.52  0.  0.
454  4.53  0.  0.
455  4.54  0.  0.
456  4.55  0.  0.
457  4.56  0.  0.
458  4.57  0.  0.
459  4.58  0.  0.
460  4.59  0.  0.
461  4.60  0.  0.
462  4.61  0.  0.
463  4.62  0.  0.
464  4.63  0.  0.
465  4.64  0.  0.
466  4.65  0.  0.
467  4.66  0.  0.
468  4.67  0.  0.
469  4.68  0.  0.
470  4.69  0.  0.
471  4.70  0.  0.
472  4.71  0.  0.
473  4.72  0.  0.
474  4.73  0.  0.
475  4.74  0.  0.
476  4.75  0.  0.
477  4.76  0.  0.
478  4.77  0.  0.
479  4.78  0.  0.
480  4.79  0.  0.
481  4.80  0.  0.
482  4.81  0.  0.
483  4.82  0.  0.
484  4.83  0.  0.
485  4.84  0.  0.
486  4.85  0.  0.
487  4.86  0.  0.
488  4.87  0.  0.
489  4.88  0.  0.
490  4.89  0.  0.
491  4.90  0.  0.
492  4.91  0.  0.
493  4.92  0.  0.
494  4.93  0.  0.
495  4.94  0.  0.
496  4.95  0.  0.
497  4.96  0.  0.
498  4.97  0.  0.
499  4.98  0.  0.
500  4.99  0.  0.
501  5.00  0.  0.
502  5.01  0.  0.
503  5.02  0.  0.
504  5.03  0.  0.
505  5.04  0.  0.
506  5.05  0.  0.
507  5.06  0.  0.
508  5.07  0.  0.
509  5.08  0.  0.
510  5.09  0.  0.
511  5.10  0.  0.
512  5.11  0.  0.
513  5.12  0.  0.
514  5.13  0.  0.
515  5.14  0.  0.
516  5.15  0.  0.
517  5.16  0.  0.
518  5.17  0.  0.
519  5.18  0.  0.
520  5.19  0.  0.
521  5.20  0.  0.
522  5.21  0.  0.
523  5.22  0.  0.
524  5.23  0.  0.
525  5.24  0.  0.
526  5.25  0.  0.
527  5.26  0.  0.
528  5.27  0.  0.
529  5.28  0.  0.
530  5.29  0.  0.
531  5.30  0.  0.
532  5.31  0.  0.
533  5.32  0.  0.
534  5.33  0.  0.
535  5.34  0.  0.
536  5.35  0.  0.
537  5.36  0.  0.
538  5.37  0.  0.
539  5.38  0.  0.
540  5.39  0.  0.
541  5.40  0.  0.
542  5.41  0.  0.
543  5.42  0.  0.
544  5.43  0.  0.
545  5.44  0.  0.
546  5.45  0.  0.
547  5.46  0.  0.
548  5.47  0.  0.
549  5.48  0.  0.
550  5.49  0.  0.
551  5.50  0.  0.
552  5.51  0.  0.
553  5.52  0.  0.
554  5.53  0.  0.
555  5.54  0.  0.
556  5.55  0.  0.
557  5.56  0.  0.
558  5.57  0.  0.
559  5.58  0.  0.
560  5.59  0.  0.
561  5.60  0.  0.
562  5.61  0.  0.
563  5.62  0.  0.
564  5.63  0.  0.
565  5.64  0.  0.
566  5.65  0.  0.
567  5.66  0.  0.
568  5.67  0.  0.
569  5.68  0.  0.
570  5.69  0.  0.
571  5.70  0.  0.
572  5.71  0.  0.
573  5.72  0.  0.
574  5.73  0.  0.
575  5.74  0.  0.
576  5.75  0.  0.
577  5.76  0.  0.
578  5.77  0.  0.
579  5.78  0.  0.
580  5.79  0.  0.
581  5.80  0.  0.
582  5.81  0.  0.
583  5.82  0.  0.
584  5.83  0.  0.
585  5.84  0.  0.
586  5.85  0.  0.
587  5.86  0.  0.
588  5.87  0.  0.
589  5.88  0.  0.
590  5.89  0.  0.
591  5.90  0.  0.
592  5.91  0.  0.
593  5.92  0.  0.
594  5.93  0.  0.
595  5.94  0.  0.
596  5.95  0.  0.
597  5.96  0.  0.
598  5.97  0.  0.
599  5.98  0.  0.
600  5.99  0.  0.
1                         5.6359711102088E+00  3.5731628156828E-01
1  0.0000000000000E+00  3.7422305115831E-09 -2.3852505970368E-08
2  1.0000000000000E-02  1.3223150213279E-03 -2.6463437492162E-03
3  2.0000000000000E-02  5.2800609037356E-03 -1.0538639714638E-02
4  3.0000000000000E-02  1.1845767198482E-02 -2.3537485290422E-02
5  4.0000000000000E-02  2.0974071307964E-02 -4.1413206502292E-02
6  5.0000000000000E-02  3.2602343155571E-02 -6.3849805610584E-02
7  6.0000000000000E-02  4.6651544748968E-02 -9.0450392696468E-02
8  7.0000000000000E-02  6.3027309978733E-02 -1.2074400812444E-01
9  8.0000000000000E-02  8.1621226252039E-02 -1.5419371892166E-01
10  9.0000000000000E-02  1.0231229614256E-01 -1.9020585026091E-01
11  1.0000000000000E-01  1.2496855420273E-01 -2.2814019374983E-01
12  1.1000000000000E-01  1.4944881148659E-01 -2.6732101745083E-01
13  1.2000000000000E-01  1.7560449821679E-01 -3.0704868876811E-01
14  1.3000000000000E-01  2.0328157343372E-01 -3.4661171077792E-01
15  1.4000000000000E-01  2.3232246941843E-01 -3.8529896542624E-01
16  1.5000000000000E-01  2.6256803820031E-01 -4.2241195339702E-01
17  1.6000000000000E-01  2.9385946755532E-01 -4.5727682042785E-01
18  1.7000000000000E-01  3.2604013456862E-01 -4.8925596341739E-01
19  1.8000000000000E-01  3.5895736606496E-01 -5.1775901677326E-01
20  1.9000000000000E-01  3.9246407697991E-01 -5.4225302996711E-01
21  2.0000000000000E-01  4.2642026002299E-01 -5.6227166101813E-01
22  2.1000000000000E-01  4.6069430273077E-01 -5.7742322738321E-01
23  2.2000000000000E-01  4.9516411117447E-01 -5.8739747520516E-01
24  2.3000000000000E-01  5.2971802311740E-01 -5.9197094972866E-01
25  2.4000000000000E-01  5.6425549724993E-01 -5.9101087356449E-01
26  2.5000000000000E-01  5.9868756919586E-01 -5.8447746495742E-01
27  2.6000000000000E-01  6.3293706921184E-01 -5.7242465485912E-01
28  2.7000000000000E-01  6.6693860081640E-01 -5.5499918896798E-01
29  2.8000000000000E-01  7.0063828391040E-01 -5.3243812850611E-01
30  2.9000000000000E-01  7.3399327020917E-01 -5.0506479088855E-01
31  3.0000000000000E-01  7.6697104292336E-01 -4.7328319813197E-01
32  3.1000000000000E-01  7.9954851652662E-01 -4.3757112639405E-01
33  3.2000000000000E-01  8.3171095606435E-01 -3.9847187399378E-01
34  3.3000000000000E-01  8.6345073872445E-01 -3.5658488722509E-01
35  3.4000000000000E-01  8.9476598324975E-01 -3.1255540286895E-01
36  3.5000000000000E-01  9.2565907517136E-01 -2.6706328319384E-01
37  3.6000000000000E-01  9.5613511773868E-01 -2.2081123312333E-01
38  3.7000000000000E-01  9.8620033978274E-01 -1.7451259990539E-01
39  3.8000000000000E-01  1.0158604925473E+00 -1.2887896285688E-01
40  3.9000000000000E-01  1.0451192677448E+00 -8.4607724455594E-02
41  4.0000000000000E-01  1.0739767687337E+00 -4.2369914146742E-02
42  4.1000000000000E-01  1.1024280657809E+00 -2.7984127217567E-03
43  4.2000000000000E-01  1.1304618648748E+00  3.3523201927941E-02
44  4.3000000000000E-01  1.1580593175307E+00  6.6070997357583E-02
45  4.4000000000000E-01  1.1851929964968E+00  9.4390040812422E-02
46  4.5000000000000E-01  1.2118260592948E+00  1.1810260529312E-01
47  4.6000000000000E-01  1.2379116181406E+00  1.3691508701733E-01
48  4.7000000000000E-01  1.2633923310688E+00  1.5062351568615E-01
49  4.8000000000000E-01  1.2882002250836E+00  1.5911756280889E-01
50  4.9000000000000E-01  1.3122567579519E+00  1.6238297878625E-01
51  5.0000000000000E-01  1.3354731209212E+00  1.6050241606088E-01
52  5.1000000000000E-01  1.3577507802526E+00  1.5365462296132E-01
53  5.2000000000000E-01  1.3789822510990E+00  1.4211202041889E-01
54  5.3000000000000E-01  1.3990520929953E+00  1.2623670105676E-01
55  5.4000000000000E-01  1.4178381121484E+00  1.0647491676569E-01
56  5.5000000000000E-01  1.4352127518850E+00  8.3350146338049E-02
57  5.6000000000000E-01  1.4510446491071E+00  5.7454858593340E-02
58  5.7000000000000E-01  1.4652003314842E+00  2.9441108288598E-02
59  5.8000000000000E-01  1.4775460274233E+00  1.0121592957961E-05
60  5.9000000000000E-01  1.4879495586706E+00 -3.0098955313385E-02
61  6.0000000000000E-01  1.4962822837252E+00 -6.0120957163573E-02
62  6.1000000000000E-01  1.5024210591467E+00 -8.9277052125335E-02
63  6.2000000000000E-01  1.5062501853030E+00 -1.1678734081517E-01
64  6.3000000000000E-01  1.5076633031734E+00 -1.4188349303126E-01
65  6.4000000000000E-01  1.5065652094678E+00 -1.6382121332758E-01
66  6.5000000000000E-01  1.5028735585532E+00 -1.8189233000308E-01
67  6.6000000000000E-01  1.4965204214604E+00 -1.9543630901925E-01
68  6.7000000000000E-01  1.4874536745545E+00 -2.0385100465583E-01
69  6.8000000000000E-01  1.4756381932423E+00 -2.0660247217868E-01
70  6.9000000000000E-01  1.4610568293161E+00 -2.0323368418454E-01
71  7.0000000000000E-01  1.4437111541366E+00 -1.9337201130869E-01
72  7.1000000000000E-01  1.4236219537692E+00 -1.7673534929793E-01
73  7.2000000000000E-01  1.4008294663482E+00 -1.5313679768101E-01
74  7.3000000000000E-01  1.3753933562666E+00 -1.2248782000638E-01
75  7.4000000000000E-01  1.3473924242065E+00 -8.4799841425079E-02
76  7.5000000000000E-01  1.3169240564552E+00 -4.0184265821918E-02
77  7.6000000000000E-01  1.2841034213155E+00  1.1149078714169E-02
78  7.7000000000000E-01  1.2490624246400E+00  6.8895031009641E-02
79  7.8000000000000E-01  1.2119484405200E+00  1.3265766391948E-01
80  7.9000000000000E-01  1.1729228368761E+00  2.0195624251070E-01
81  8.0000000000000E-01  1.1321593190556E+00  2.7623246567518E-01
82  8.1000000000000E-01  1.0898421174920E+00  3.5485886281339E-01
83  8.2000000000000E-01  1.0461640479643E+00  4.3714819885448E-01
84  8.3000000000000E-01  1.0013244749743E+00  5.2236372515231E-01
85  8.4000000000000E-01  9.5552721019998E-01  6.0973010097519E-01
86  8.5000000000000E-01  9.0897837885999E-01  6.9844480059190E-01
87  8.6000000000000E-01  8.6188428712862E-01  7.8768981449531E-01
88  8.7000000000000E-01  8.1444932346429E-01  8.7664345018533E-01
89  8.8000000000000E-01  7.6687392587211E-01  9.6449203818245E-01
90  8.9000000000000E-01  7.1935264572490E-01  1.0504413525324E+00
91  9.0000000000000E-01  6.7207233684949E-01  1.1337275618972E+00
92  9.1000000000000E-01  6.2521049618134E-01  1.2136275372678E+00
93  9.2000000000000E-01  5.7893377944822E-01  1.2894683551691E+00
94  9.3000000000000E-01  5.3339671211538E-01  1.3606358507181E+00
95  9.4000000000000E-01  4.8874061227142E-01  1.4265820927414E+00
96  9.5000000000000E-01  4.4509273832202E-01  1.4868316730235E+00
97  9.6000000000000E-01  4.0256567035618E-01  1.5409867232850E+00
98  9.7000000000000E-01  3.6125692993158E-01  1.5887305962818E+00
99  9.8000000000000E-01  3.2124883886441E-01  1.6298301710664E+00
100  9.9000000000000E-01  2.8260861347962E-01  1.6641367665441E+00
101  1.0000000000000E+00  2.4538868675349E-01  1.6915856715605E+00
102  1.0100000000000E+00  2.0962724692862E-01  1.7121943234747E+00
103  1.0200000000000E+00  1.7534897757243E-01  1.7260591900783E+00
104  1.0300000000000E+00  1.4256598074321E-01  1.7333514314344E+00
105  1.0400000000000E+00  1.1127886197283E-01  1.7343114384053E+00
106  1.0500000000000E+00  8.1477953228658E-02  1.7292423629388E+00
107  1.0600000000000E+00  5.3144647911154E-02  1.7185027713313E+00
108  1.0700000000000E+00  2.6252820310156E-02  1.7024985654536E+00
109  1.0800000000000E+00  7.7030080841703E-04  1.6816743280535E+00
110  1.0900000000000E+00 -2.3339622508629E-02  1.6565042566568E+00
111  1.1000000000000E+00 -4.6116705292657E-02  1.6274828561108E+00
112  1.1100000000000E+00 -6.7602280489369E-02  1.5951155624442E+00
113  1.1200000000000E+00 -8.7837852195655E-02  1.5599094704111E+00
114  1.1300000000000E+00 -1.0686377665355E-01  1.5223643339366E+00
115  1.1400000000000E+00 -1.2471805542121E-01  1.4829640027050E+00
116  1.1500000000000E+00 -1.4143526357728E-01  1.4421684495630E+00
117  1.1600000000000E+00 -1.5704563325281E-01  1.4004065322743E+00
118  1.1700000000000E+00 -1.7157430993060E-01  1.3580696198376E+00
119  1.1800000000000E+00 -1.8504079581458E-01  1.3155061980938E+00
120  1.1900000000000E+00 -1.9745859124142E-01  1.2730175521359E+00
121  1.2000000000000E+00 -2.0883504161123E-01  1.2308546042198E+00
122  1.2100000000000E+00 -2.1917139371161E-01  1.1892159657583E+00
123  1.2200000000000E+00 -2.2846306167373E-01  1.1482472409454E+00
124  1.2300000000000E+00 -2.3670009912842E-01  1.1080415975907E+00
125  1.2400000000000E+00 -2.4386787053573E-01  1.0686415984659E+00
126  1.2500000000000E+00 -2.4994791112101E-01  1.0300422637614E+00
127  1.2600000000000E+00 -2.5491896142915E-01  9.9219531249073E-01
128  1.2700000000000E+00 -2.5875815924217E-01  9.5501450812903E-01
129  1.2800000000000E+00 -2.6144236847006E-01  9.1838201127385E-01
130  1.2900000000000E+00 -2.6294962167482E-01  8.8215562006171E-01
131  1.3000000000000E+00 -2.6326065010867E-01  8.4617675744053E-01
132  1.3100000000000E+00 -2.6236047251211E-01  8.1027904302071E-01
133  1.3200000000000E+00 -2.6024001144085E-01  7.7429726632837E-01
134  1.3300000000000E+00 -2.5689770352802E-01  7.3807655764191E-01