Dy    ONCVPSP-4.0.1  r_core=   2.00176   1.60430   1.90822   1.35689
66.0000     20.0000      241015    zatom,zion,pspd
8      11   3     4   600     0    pspcod,pspxc,lmax,lloc,mmax,r2well
5.99000000  4.00000000  0.00000000    rchrg fchrg qchrg
3     2     2     2     0    nproj
1     1           extension_switch
0                         1.2577810542635E+01  3.0482788333419E+00  6.1032926614515E-01
1  0.0000000000000E+00 -1.1126360943692E-09  2.3241496505122E-09 -3.1826251079003E-09
2  1.0000000000000E-02  6.0319820403877E-02 -3.1966047807599E-02  4.8743099801320E-02
3  2.0000000000000E-02  1.2042877944106E-01 -6.3558208944787E-02  9.6964365052818E-02
4  3.0000000000000E-02  1.8011802573532E-01 -9.4406890140954E-02  1.4414806844942E-01
5  4.0000000000000E-02  2.3918270382515E-01 -1.2415103374042E-01  1.8979062569161E-01
6  5.0000000000000E-02  2.9742389224192E-01 -1.5244225814615E-01  2.3340648909673E-01
7  6.0000000000000E-02  3.5465047053135E-01 -1.7894884709391E-01  2.7453383002185E-01
8  7.0000000000000E-02  4.1068089285362E-01 -2.0335954012540E-01  3.1273994347842E-01
9  8.0000000000000E-02  4.6534484691021E-01 -2.2538707895354E-01  3.4762631150144E-01
10  9.0000000000000E-02  5.1848477831295E-01 -2.4477146726972E-01  3.7883326574994E-01
11  1.0000000000000E-01  5.6995726211623E-01 -2.6128290489909E-01  4.0604419441466E-01
12  1.1000000000000E-01  6.1963420506014E-01 -2.7472436102924E-01  4.2898924374632E-01
13  1.2000000000000E-01  6.6740386409736E-01 -2.8493375547510E-01  4.4744847033159E-01
14  1.3000000000000E-01  7.1317166897948E-01 -2.9178572155315E-01  4.6125440657498E-01
15  1.4000000000000E-01  7.5686083903082E-01 -2.9519292906617E-01  4.7029400861651E-01
16  1.5000000000000E-01  7.9841278671486E-01 -2.9510695109247E-01  4.7450996305915E-01
17  1.6000000000000E-01  8.3778730317075E-01 -2.9151866367045E-01  4.7390133631144E-01
18  1.7000000000000E-01  8.7496252353418E-01 -2.8445817300797E-01  4.6852355798880E-01
19  1.8000000000000E-01  9.0993467252916E-01 -2.7399427046516E-01  4.5848773757536E-01
20  1.9000000000000E-01  9.4271759349217E-01 -2.6023342119190E-01  4.4395932134018E-01
21  2.0000000000000E-01  9.7334206663691E-01 -2.4331829788330E-01  4.2515610423641E-01
22  2.1000000000000E-01  1.0018549249550E+00 -2.2342587658295E-01  4.0234561910450E-01
23  2.2000000000000E-01  1.0283179786438E+00 -2.0076511674900E-01  3.7584193285950E-01
24  2.3000000000000E-01  1.0528067613292E+00 -1.7557425284337E-01  3.4600188638889E-01
25  2.4000000000000E-01  1.0754091135770E+00 -1.4811772944463E-01  3.1322082153073E-01
26  2.5000000000000E-01  1.0962236212341E+00 -1.1868281626724E-01  2.7792784467185E-01
27  2.6000000000000E-01  1.1153579279923E+00 -8.7575943439431E-02  2.4058068212421E-01
28  2.7000000000000E-01  1.1329269431832E+00 -5.5118800899457E-02  2.0166018743809E-01
29  2.8000000000000E-01  1.1490509671929E+00 -2.1644248771898E-02  1.6166456513170E-01
30  2.9000000000000E-01  1.1638537579918E+00  1.2507911955848E-02  1.2110337890496E-01
31  3.0000000000000E-01  1.1774605631098E+00  4.6995257254094E-02  8.0491415214811E-02
32  3.1000000000000E-01  1.1899961419228E+00  8.1477093887587E-02  4.0342475078115E-02
33  3.2000000000000E-01  1.2015828033579E+00  1.1561879612702E-01  1.1631681171852E-03
34  3.3000000000000E-01  1.2123384840592E+00  1.4909607216940E-01 -3.6553216856798E-02
35  3.4000000000000E-01  1.2223748916814E+00  1.8159910771570E-01 -7.2332691022470E-02
36  3.5000000000000E-01  1.2317957373021E+00  2.1283653539902E-01 -1.0572632225074E-01
37  3.6000000000000E-01  1.2406950799679E+00  2.4253918063199E-01 -1.3631569942521E-01
38  3.7000000000000E-01  1.2491558051223E+00  2.7046353691926E-01 -1.6371803764191E-01
39  3.8000000000000E-01  1.2572482571229E+00  2.9639492674404E-01 -1.8759086153199E-01
40  3.9000000000000E-01  1.2650290442520E+00  3.2015030774508E-01 -2.0763620869832E-01
41  4.0000000000000E-01  1.2725400325853E+00  3.4158068802240E-01 -2.2360430072810E-01
42  4.1000000000000E-01  1.2798075428220E+00  3.6057311899131E-01 -2.3529663537005E-01
43  4.2000000000000E-01  1.2868417617330E+00  3.7705223920107E-01 -2.4256846018796E-01
44  4.3000000000000E-01  1.2936363772706E+00  3.9098134788083E-01 -2.4533059523623E-01
45  4.4000000000000E-01  1.3001684436390E+00  4.0236299261999E-01 -2.4355057997964E-01
46  4.5000000000000E-01  1.3063984797860E+00  4.1123906145133E-01 -2.3725312769137E-01
47  4.6000000000000E-01  1.3122708018664E+00  4.1769037563029E-01 -2.2651987883819E-01
48  4.7000000000000E-01  1.3177140872968E+00  4.2183578550345E-01 -2.1148845338201E-01
49  4.8000000000000E-01  1.3226421650909E+00  4.2383077797264E-01 -1.9235081040947E-01
50  4.9000000000000E-01  1.3269550242872E+00  4.2386561010104E-01 -1.6935093192694E-01
51  5.0000000000000E-01  1.3305400294741E+00  4.2216298931249E-01 -1.4278185594526E-01
52  5.1000000000000E-01  1.3332733297410E+00  4.1897532631154E-01 -1.1298209199728E-01
53  5.2000000000000E-01  1.3350214448446E+00  4.1458159225222E-01 -8.0331459915806E-02
54  5.3000000000000E-01  1.3356430100417E+00  4.0928381671092E-01 -4.5246399917507E-02
55  5.4000000000000E-01  1.3349906589045E+00  4.0340326763208E-01 -8.1748087281235E-03
56  5.5000000000000E-01  1.3329130215541E+00  3.9727635853707E-01  3.0409537458718E-02
57  5.6000000000000E-01  1.3292568141388E+00  3.9125033186819E-01  7.0012907047661E-02
58  5.7000000000000E-01  1.3238689940618E+00  3.8567877033350E-01  1.1012781341436E-01
59  5.8000000000000E-01  1.3165989544698E+00  3.8091699047584E-01  1.5023941713631E-01
60  5.9000000000000E-01  1.3073007308330E+00  3.7731737438534E-01  1.8983205278928E-01
61  6.0000000000000E-01  1.2958351921246E+00  3.7522469647316E-01  2.2839580111292E-01
62  6.1000000000000E-01  1.2820721891172E+00  3.7497150252212E-01  2.6543302639818E-01
63  6.2000000000000E-01  1.2658926326885E+00  3.7687359779912E-01  3.0046479899463E-01
64  6.3000000000000E-01  1.2471904757383E+00  3.8122569987928E-01  3.3303712385381E-01
65  6.4000000000000E-01  1.2258745733800E+00  3.8829730998528E-01  3.6272689803024E-01
66  6.5000000000000E-01  1.2018703974538E+00  3.9832885411724E-01  3.8914752302586E-01
67  6.6000000000000E-01  1.1751215831115E+00  4.1152814206417E-01  4.1195410175508E-01
68  6.7000000000000E-01  1.1455912872131E+00  4.2806718859178E-01  4.3084815467878E-01
69  6.8000000000000E-01  1.1132633405419E+00  4.4807943672962E-01  4.4558179526051E-01
70  6.9000000000000E-01  1.0781431783396E+00  4.7165741820540E-01  4.5596131124988E-01
71  7.0000000000000E-01  1.0402585363803E+00  4.9885088073702E-01  4.6185010534440E-01
72  7.1000000000000E-01  9.9965990267476E-01  5.2966540618670E-01  4.6317095640524E-01
73  7.2000000000000E-01  9.5642071791878E-01  5.6406153755909E-01  4.5990757053578E-01
74  7.3000000000000E-01  9.1063732090579E-01  6.0195442658264E-01  4.5210539985254E-01
75  7.4000000000000E-01  8.6242863828498E-01  6.4321400722542E-01  4.3987171558593E-01
76  7.5000000000000E-01  8.1193562121847E-01  6.8766569405158E-01  4.2337493113020E-01
77  7.6000000000000E-01  7.5932043462577E-01  7.3509159790973E-01  4.0284317969966E-01
78  7.7000000000000E-01  7.0476540776480E-01  7.8523224514272E-01  3.7856216023312E-01
79  7.8000000000000E-01  6.4847175783563E-01  8.3778878041411E-01  3.5087227399109E-01
80  7.9000000000000E-01  5.9065810107379E-01  8.9242562742952E-01  3.2016508281721E-01
81  8.0000000000000E-01  5.3155876837768E-01  9.4877357638290E-01  2.8687912815939E-01
82  8.1000000000000E-01  4.7142194485926E-01  1.0064332619429E+00  2.5149515757743E-01
83  8.2000000000000E-01  4.1050765478307E-01  1.0649789910824E+00  2.1453081250365E-01
84  8.3000000000000E-01  3.4908561513651E-01  1.1239628761086E+00  1.7653483737853E-01
85  8.4000000000000E-01  2.8743298253200E-01  1.1829192249182E+00  1.3808087588778E-01
86  8.5000000000000E-01  2.2583201925904E-01  1.2413691378199E+00  9.9760924816308E-02
87  8.6000000000000E-01  1.6456770506305E-01  1.2988252582818E+00  6.2178519939193E-02
88  8.7000000000000E-01  1.0392532162537E-01  1.3547966236717E+00  2.5941731377268E-02
89  8.8000000000000E-01  4.4188036747104E-02  1.4087935614984E+00 -8.3439520910812E-03
90  8.9000000000000E-01 -1.4365485098244E-02  1.4603325768047E+00 -4.0082769151825E-02
91  9.0000000000000E-01 -7.1463419871421E-02  1.5089411772172E+00 -6.8695781722662E-02
92  9.1000000000000E-01 -1.2684304379810E-01  1.5541625836808E+00 -9.3627840324559E-02
93  9.2000000000000E-01 -1.8025289234888E-01  1.5955602770745E+00 -1.1435434066067E-01
94  9.3000000000000E-01 -2.3145479644987E-01  1.6327223336613E+00 -1.3038769549083E-01
95  9.4000000000000E-01 -2.8022577593079E-01  1.6652655056223E+00 -1.4128344917234E-01
96  9.5000000000000E-01 -3.2635977237442E-01  1.6928390066915E+00 -1.4664596624114E-01
97  9.6000000000000E-01 -3.6966920588335E-01  1.7151279670736E+00 -1.4613363005884E-01
98  9.7000000000000E-01 -4.0998634278202E-01  1.7318565263081E+00 -1.3946349276158E-01
99  9.8000000000000E-01 -4.4716446388254E-01  1.7427905374639E+00 -1.2641532343469E-01
100  9.9000000000000E-01 -4.8107882561197E-01  1.7477398609089E+00 -1.0683500749801E-01
101  1.0000000000000E+00 -5.1162740897970E-01  1.7465602308210E+00 -8.0637256636756E-02
102  1.0100000000000E+00 -5.3873145400993E-01  1.7391546824941E+00 -4.7807595154868E-02
103  1.0200000000000E+00 -5.6233577982534E-01  1.7254745332608E+00 -8.4035952746438E-03
104  1.0300000000000E+00 -5.8240889300019E-01  1.7055199144217E+00  3.7444659424417E-02
105  1.0400000000000E+00 -5.9894288906314E-01  1.6793398558557E+00  8.9534896604653E-02
106  1.0500000000000E+00 -6.1195315407751E-01  1.6470319289333E+00  1.4759377146508E-01
107  1.0600000000000E+00 -6.2147787503285E-01  1.6087414568914E+00  2.1127877800561E-01
108  1.0700000000000E+00 -6.2757736930749E-01  1.5646603049171E+00  2.8018095032544E-01
109  1.0800000000000E+00 -6.3033324469849E-01  1.5150252648103E+00  3.5382834296512E-01
110  1.0900000000000E+00 -6.2984740243285E-01  1.4601160512073E+00  4.3169027340273E-01
111  1.1000000000000E+00 -6.2624089618095E-01  1.4002529279921E+00  5.1318230399063E-01
112  1.1100000000000E+00 -6.1965266038220E-01  1.3357939846929E+00  5.9767193482215E-01
113  1.1200000000000E+00 -6.1023812118284E-01  1.2671320834242E+00  6.8448497309544E-01
114  1.1300000000000E+00 -5.9816770300114E-01  1.1946914973535E+00  7.7291253839791E-01
115  1.1400000000000E+00 -5.8362524320691E-01  1.1189242618413E+00  8.6221865672050E-01
116  1.1500000000000E+00 -5.6680632668850E-01  1.0403062594495E+00  9.5164838878759E-01
117  1.1600000000000E+00 -5.4791655122878E-01  9.5933306008054E-01  1.0404364300953E+00
118  1.1700000000000E+00 -5.2716973371395E-01  8.7651553778498E-01  1.1278161106999E+00
119  1.1800000000000E+00 -5.0478606632789E-01  7.9237528645843E-01  1.2130287118188E+00
120  1.1900000000000E+00 -4.8099023115712E-01  7.0743985798556E-01  1.2953330034312E+00
121  1.2000000000000E+00 -4.5600948116075E-01  6.2223784865089E-01  1.3740148917691E+00
122  1.2100000000000E+00 -4.3007169538313E-01  5.3729386313872E-01  1.4483970473902E+00
123  1.2200000000000E+00 -4.0340341675357E-01  4.5312339049005E-01  1.5178483630412E+00
124  1.2300000000000E+00 -3.7622788200979E-01  3.7022763343999E-01  1.5817930648317E+00
125  1.2400000000000E+00 -3.4876305536422E-01  2.8908834190801E-01  1.6397192701860E+00
126  1.2500000000000E+00 -3.2121968073647E-01  2.1016271363709E-01  1.6911867504889E+00
127  1.2600000000000E+00 -2.9379937192884E-01  1.3387844054337E-01  1.7358336147060E+00
128  1.2700000000000E+00 -2.6669276622207E-01  6.0628998639686E-02  1.7733815820529E+00
129  1.2800000000000E+00 -2.4007777488104E-01 -9.2306966882471E-03  1.8036394554372E+00
130  1.2900000000000E+00 -2.1411797420921E-01 -7.5388119342137E-02  1.8265043425694E+00
131  1.3000000000000E+00 -1.8896119335528E-01 -1.3757625984130E-01  1.8419600974195E+00
132  1.3100000000000E+00 -1.6473837056318E-01 -1.9557582471551E-01  1.8500723691513E+00
133  1.3200000000000E+00 -1.4156276818078E-01 -2.4921623286951E-01  1.8509795485950E+00
134  1.3300000000000E+00 -1.1952965895587E-01 -2.9837507719693E-01  1.8448787921257E+00
135  1.3400000000000E+00 -9.8716622523666E-02 -3.4297565359263E-01  1.8320061756993E+00
136  1.3500000000000E+00 -7.9184617825616E-02 -3.8298209706736E-01  1.8126099869356E+00
137  1.3600000000000E+00 -6.0980065402331E-02 -4.1839146799732E-01  1.7869152135877E+00
138  1.3700000000000E+00 -4.4137145921393E-02 -4.4922563222443E-01  1.7551012700324E+00
139  1.3800000000000E+00 -2.8677011810737E-02 -4.7553418677674E-01  1.7173566578155E+00
140  1.3900000000000E+00 -1.4606999467991E-02 -4.9739782926617E-01  1.6739182469572E+00
141  1.4000000000000E+00 -1.9214611169366E-03 -5.1492642919258E-01  1.6250682934378E+00
142  1.4100000000000E+00  9.3973158110785E-03 -5.2825689320227E-01  1.5711312390362E+00
143  1.4200000000000E+00  1.9378103387003E-02 -5.3755081121737E-01  1.5124698575571E+00
144  1.4300000000000E+00  2.8059669154206E-02 -5.4299195526604E-01  1.4494811325501E+00
145  1.4400000000000E+00  3.5489668739895E-02 -5.4478366386056E-01  1.3825919049455E+00
146  1.4500000000000E+00  4.1723510459744E-02 -5.4314614510980E-01  1.3122543375935E+00
147  1.4600000000000E+00  4.6823207068431E-02 -5.3831373184017E-01  1.2389412475896E+00
148  1.4700000000000E+00  5.0856229277341E-02 -5.3053212120845E-01  1.1631413570797E+00
149  1.4800000000000E+00  5.3894374979892E-02 -5.2005563021622E-01  1.0853545129599E+00
150  1.4900000000000E+00  5.6012667235997E-02 -5.0714449696172E-01  1.0060869244204E+00
151  1.5000000000000E+00  5.7288293064031E-02 -4.9206225566665E-01  9.2584646575254E-01
152  1.5100000000000E+00  5.7799593939759E-02 -4.7507321137179E-01  8.4513808960528E-01
153  1.5200000000000E+00  5.7625117660769E-02 -4.5644003784499E-01  7.6445939337544E-01
154  1.5300000000000E+00  5.6842739875588E-02 -4.3642151958191E-01  6.8429637814160E-01
155  1.5400000000000E+00  5.5528862202813E-02 -4.1527045610260E-01  6.0511943653021E-01
156  1.5500000000000E+00  5.3757692411404E-02 -3.9323174381511E-01  5.2737960205135E-01
157  1.5600000000000E+00  5.1600610659303E-02 -3.7054064771472E-01  4.5150508847578E-01
158  1.5700000000000E+00  4.9125624368858E-02 -3.4742127229349E-01  3.7789814411094E-01
159  1.5800000000000E+00  4.6396912847318E-02 -3.2408523792114E-01  3.0693224123882E-01
160  1.5900000000000E+00  4.3474461407060E-02 -3.0073056610709E-01  2.3894961703959E-01
161  1.6000000000000E+00  4.0413783399803E-02 -2.7754077413479E-01  1.7425917783940E-01
162  1.6100000000000E+00  3.7265727373385E-02 -2.5468417692038E-01  1.1313477456542E-01
163  1.6200000000000E+00  3.4076365396654E-02 -2.3231339130411E-01  5.5813852899097E-02
164  1.6300000000000E+00  3.0886957575063E-02 -2.1056503561337E-01  2.4964776463238E-03
165  1.6400000000000E+00  2.7733986924582E-02 -1.8955961530162E-01 -4.6655272650894E-02
166  1.6500000000000E+00  2.4649257968452E-02 -1.6940158344205E-01 -9.1517548768672E-02
167  1.6600000000000E+00  2.1660051801852E-02 -1.5017956320748E-01 -1.3200462275805E-01
168  1.6700000000000E+00  1.8789329930298E-02 -1.3196671818557E-01 -1.6806844284125E-01
169  1.6800000000000E+00  1.6055978841871E-02 -1.1482125522165E-01 -1.9969786822149E-01
170  1.6900000000000E+00  1.3475087084173E-02 -9.8787043634928E-02 -2.2691760330077E-01
171  1.7000000000000E+00  1.1058246619497E-02 -8.3894334214378E-02 -2.4978685267402E-01
172  1.7100000000000E+00  8.8138703363832E-03 -7.0160561133263E-02 -2.6839772008660E-01
173  1.7200000000000E+00  6.7475178080132E-03 -5.7591209853510E-02 -2.8287337617461E-01
174  1.7300000000000E+00  4.8622218179468E-03 -4.6180734527618E-02 -2.9336602048694E-01
175  1.7400000000000E+00  3.1588086093506E-03 -3.5913508790562E-02 -3.0005466435063E-01
176  1.7500000000000E+00  1.6362054380130E-03 -2.6764794668078E-02 -3.0314276132024E-01
177  1.7600000000000E+00  2.9172965685453E-04 -1.8701715187249E-02 -3.0285571222410E-01
178  1.7700000000000E+00 -8.7864567293369E-04 -1.1684217426838E-02 -2.9943827152363E-01
179  1.7800000000000E+00 -1.8800538290225E-03 -5.6660140267441E-03 -2.9315188116511E-01
180  1.7900000000000E+00 -2.7185275102960E-03 -5.9549243336802E-04 -2.8427195764644E-01
181  1.8000000000000E+00 -3.4008254271458E-03  3.5834173134505E-03 -2.7308515691401E-01
182  1.8100000000000E+00 -3.9342939831079E-03  6.9304239239569E-03 -2.5988664055960E-01
183  1.8200000000000E+00 -4.3267647935700E-03  9.5081115679911E-03 -2.4497736572699E-01
184  1.8300000000000E+00 -4.5864879238800E-03  1.1381236625584E-02 -2.2866141965817E-01
185  1.8400000000000E+00 -4.7220998940425E-03  1.2616087599505E-02 -2.1124341818102E-01
186  1.8500000000000E+00 -4.7426248365649E-03  1.3279910122576E-02 -1.9302598640167E-01
187  1.8600000000000E+00 -4.6575059527894E-03  1.3440396274954E-02 -1.7430733541851E-01
188  1.8700000000000E+00 -4.4766470140579E-03  1.3165206467486E-02 -1.5537892099271E-01
189  1.8800000000000E+00 -4.2106579184677E-03  1.2521886746203E-02 -1.3652358246556E-01
190  1.8900000000000E+00 -3.8704494000408E-03  1.1576600075530E-02 -1.1801247366099E-01
191  1.9000000000000E+00 -3.4681822389741E-03  1.0395394078947E-02 -1.0010482954880E-01
192  1.9100000000000E+00 -3.0302110757511E-03  9.0678691352056E-03 -8.3072167422569E-02
193  1.9200000000000E+00 -2.5897671702439E-03  7.6931728226734E-03 -6.7181701879246E-02
194  1.9300000000000E+00 -2.1500874418778E-03  6.3109159497464E-03 -5.2620044462386E-02
195  1.9400000000000E+00 -1.7175643051614E-03  4.9624570993784E-03 -3.9558581294953E-02
196  1.9500000000000E+00 -1.3013437802246E-03  3.6898661689669E-03 -2.8151355998361E-02
197  1.9600000000000E+00 -9.1362924175348E-04  2.5362413072961E-03 -1.8534573621005E-02
198  1.9700000000000E+00 -5.6994692795085E-04  1.5461186304038E-03 -1.0828761544659E-02
199  1.9800000000000E+00 -2.8754849195893E-04  7.6135184552289E-04 -5.1137530554687E-03
200  1.9900000000000E+00 -9.0921593627297E-05  2.3457704316112E-04 -1.5090548853473E-03
201  2.0000000000000E+00 -5.7638643156740E-06  1.4292523419275E-05 -8.4653037215650E-05
202  2.0100000000000E+00  3.2791655028937E-06 -8.2220674128061E-06  5.0854253038823E-05
203  2.0200000000000E+00 -1.4135866696115E-06  3.5993424571930E-06 -2.2771639650106E-05
204  2.03  0. -0.  0.
205  2.04  0. -0.  0.
206  2.05  0. -0.  0.
207  2.06  0.  0.  0.
208  2.07  0.  0.  0.
209  2.08  0.  0.  0.
210  2.09  0.  0.  0.
211  2.10  0.  0.  0.
212  2.11  0.  0.  0.
213  2.12  0.  0.  0.
214  2.13  0.  0.  0.
215  2.14  0.  0.  0.
216  2.15  0.  0.  0.
217  2.16  0.  0.  0.
218  2.17  0.  0.  0.
219  2.18  0.  0.  0.
220  2.19  0.  0.  0.
221  2.20  0.  0.  0.
222  2.21  0.  0.  0.
223  2.22  0.  0.  0.
224  2.23  0.  0.  0.
225  2.24  0.  0.  0.
226  2.25  0.  0.  0.
227  2.26  0.  0.  0.
228  2.27  0.  0.  0.
229  2.28  0.  0.  0.
230  2.29  0.  0.  0.
231  2.30  0.  0.  0.
232  2.31  0.  0.  0.
233  2.32  0.  0.  0.
234  2.33  0.  0.  0.
235  2.34  0.  0.  0.
236  2.35  0.  0.  0.
237  2.36  0.  0.  0.
238  2.37  0.  0.  0.
239  2.38  0.  0.  0.
240  2.39  0.  0.  0.
241  2.40  0.  0.  0.
242  2.41  0.  0.  0.
243  2.42  0.  0.  0.
244  2.43  0.  0.  0.
245  2.44  0.  0.  0.
246  2.45  0.  0.  0.
247  2.46  0.  0.  0.
248  2.47  0.  0.  0.
249  2.48  0.  0.  0.
250  2.49  0.  0.  0.
251  2.50  0.  0.  0.
252  2.51  0.  0.  0.
253  2.52  0.  0.  0.
254  2.53  0.  0.  0.
255  2.54  0.  0.  0.
256  2.55  0.  0.  0.
257  2.56  0.  0.  0.
258  2.57  0.  0.  0.
259  2.58  0.  0.  0.
260  2.59  0.  0.  0.
261  2.60  0.  0.  0.
262  2.61  0.  0.  0.
263  2.62  0.  0.  0.
264  2.63  0.  0.  0.
265  2.64  0.  0.  0.
266  2.65  0.  0.  0.
267  2.66  0.  0.  0.
268  2.67  0.  0.  0.
269  2.68  0.  0.  0.
270  2.69  0.  0.  0.
271  2.70  0.  0.  0.
272  2.71  0.  0.  0.
273  2.72  0.  0.  0.
274  2.73  0.  0.  0.
275  2.74  0.  0.  0.
276  2.75  0.  0.  0.
277  2.76  0.  0.  0.
278  2.77  0.  0.  0.
279  2.78  0.  0.  0.
280  2.79  0.  0.  0.
281  2.80  0.  0.  0.
282  2.81  0.  0.  0.
283  2.82  0.  0.  0.
284  2.83  0.  0.  0.
285  2.84  0.  0.  0.
286  2.85  0.  0.  0.
287  2.86  0.  0.  0.
288  2.87  0.  0.  0.
289  2.88  0.  0.  0.
290  2.89  0.  0.  0.
291  2.90  0.  0.  0.
292  2.91  0.  0.  0.
293  2.92  0.  0.  0.
294  2.93  0.  0.  0.
295  2.94  0.  0.  0.
296  2.95  0.  0.  0.
297  2.96  0.  0.  0.
298  2.97  0.  0.  0.
299  2.98  0.  0.  0.
300  2.99  0.  0.  0.
301  3.00  0.  0.  0.
302  3.01  0.  0.  0.
303  3.02  0.  0.  0.
304  3.03  0.  0.  0.
305  3.04  0.  0.  0.
306  3.05  0.  0.  0.
307  3.06  0.  0.  0.
308  3.07  0.  0.  0.
309  3.08  0.  0.  0.
310  3.09  0.  0.  0.
311  3.10  0.  0.  0.
312  3.11  0.  0.  0.
313  3.12  0.  0.  0.
314  3.13  0.  0.  0.
315  3.14  0.  0.  0.
316  3.15  0.  0.  0.
317  3.16  0.  0.  0.
318  3.17  0.  0.  0.
319  3.18  0.  0.  0.
320  3.19  0.  0.  0.
321  3.20  0.  0.  0.
322  3.21  0.  0.  0.
323  3.22  0.  0.  0.
324  3.23  0.  0.  0.
325  3.24  0.  0.  0.
326  3.25  0.  0.  0.
327  3.26  0.  0.  0.
328  3.27  0.  0.  0.
329  3.28  0.  0.  0.
330  3.29  0.  0.  0.
331  3.30  0.  0.  0.
332  3.31  0.  0.  0.
333  3.32  0.  0.  0.
334  3.33  0.  0.  0.
335  3.34  0.  0.  0.
336  3.35  0.  0.  0.
337  3.36  0.  0.  0.
338  3.37  0.  0.  0.
339  3.38  0.  0.  0.
340  3.39  0.  0.  0.
341  3.40  0.  0.  0.
342  3.41  0.  0.  0.
343  3.42  0.  0.  0.
344  3.43  0.  0.  0.
345  3.44  0.  0.  0.
346  3.45  0.  0.  0.
347  3.46  0.  0.  0.
348  3.47  0.  0.  0.
349  3.48  0.  0.  0.
350  3.49  0.  0.  0.
351  3.50  0.  0.  0.
352  3.51  0.  0.  0.
353  3.52  0.  0.  0.
354  3.53  0.  0.  0.
355  3.54  0.  0.  0.
356  3.55  0.  0.  0.
357  3.56  0.  0.  0.
358  3.57  0.  0.  0.
359  3.58  0.  0.  0.
360  3.59  0.  0.  0.
361  3.60  0.  0.  0.
362  3.61  0.  0.  0.
363  3.62  0.  0.  0.
364  3.63  0.  0.  0.
365  3.64  0.  0.  0.
366  3.65  0.  0.  0.
367  3.66  0.  0.  0.
368  3.67  0.  0.  0.
369  3.68  0.  0.  0.
370  3.69  0.  0.  0.
371  3.70  0.  0.  0.
372  3.71  0.  0.  0.
373  3.72  0.  0.  0.
374  3.73  0.  0.  0.
375  3.74  0.  0.  0.
376  3.75  0.  0.  0.
377  3.76  0.  0.  0.
378  3.77  0.  0.  0.
379  3.78  0.  0.  0.
380  3.79  0.  0.  0.
381  3.80  0.  0.  0.
382  3.81  0.  0.  0.
383  3.82  0.  0.  0.
384  3.83  0.  0.  0.
385  3.84  0.  0.  0.
386  3.85  0.  0.  0.
387  3.86  0.  0.  0.
388  3.87  0.  0.  0.
389  3.88  0.  0.  0.
390  3.89  0.  0.  0.
391  3.90  0.  0.  0.
392  3.91  0.  0.  0.
393  3.92  0.  0.  0.
394  3.93  0.  0.  0.
395  3.94  0.  0.  0.
396  3.95  0.  0.  0.
397  3.96  0.  0.  0.
398  3.97  0.  0.  0.
399  3.98  0.  0.  0.
400  3.99  0.  0.  0.
401  4.00  0.  0.  0.
402  4.01  0.  0.  0.
403  4.02  0.  0.  0.
404  4.03  0.  0.  0.
405  4.04  0.  0.  0.
406  4.05  0.  0.  0.
407  4.06  0.  0.  0.
408  4.07  0.  0.  0.
409  4.08  0.  0.  0.
410  4.09  0.  0.  0.
411  4.10  0.  0.  0.
412  4.11  0.  0.  0.
413  4.12  0.  0.  0.
414  4.13  0.  0.  0.
415  4.14  0.  0.  0.
416  4.15  0.  0.  0.
417  4.16  0.  0.  0.
418  4.17  0.  0.  0.
419  4.18  0.  0.  0.
420  4.19  0.  0.  0.
421  4.20  0.  0.  0.
422  4.21  0.  0.  0.
423  4.22  0.  0.  0.
424  4.23  0.  0.  0.
425  4.24  0.  0.  0.
426  4.25  0.  0.  0.
427  4.26  0.  0.  0.
428  4.27  0.  0.  0.
429  4.28  0.  0.  0.
430  4.29  0.  0.  0.
431  4.30  0.  0.  0.
432  4.31  0.  0.  0.
433  4.32  0.  0.  0.
434  4.33  0.  0.  0.
435  4.34  0.  0.  0.
436  4.35  0.  0.  0.
437  4.36  0.  0.  0.
438  4.37  0.  0.  0.
439  4.38  0.  0.  0.
440  4.39  0.  0.  0.
441  4.40  0.  0.  0.
442  4.41  0.  0.  0.
443  4.42  0.  0.  0.
444  4.43  0.  0.  0.
445  4.44  0.  0.  0.
446  4.45  0.  0.  0.
447  4.46  0.  0.  0.
448  4.47  0.  0.  0.
449  4.48  0.  0.  0.
450  4.49  0.  0.  0.
451  4.50  0.  0.  0.
452  4.51  0.  0.  0.
453  4.52  0.  0.  0.
454  4.53  0.  0.  0.
455  4.54  0.  0.  0.
456  4.55  0.  0.  0.
457  4.56  0.  0.  0.
458  4.57  0.  0.  0.
459  4.58  0.  0.  0.
460  4.59  0.  0.  0.
461  4.60  0.  0.  0.
462  4.61  0.  0.  0.
463  4.62  0.  0.  0.
464  4.63  0.  0.  0.
465  4.64  0.  0.  0.
466  4.65  0.  0.  0.
467  4.66  0.  0.  0.
468  4.67  0.  0.  0.
469  4.68  0.  0.  0.
470  4.69  0.  0.  0.
471  4.70  0.  0.  0.
472  4.71  0.  0.  0.
473  4.72  0.  0.  0.
474  4.73  0.  0.  0.
475  4.74  0.  0.  0.
476  4.75  0.  0.  0.
477  4.76  0.  0.  0.
478  4.77  0.  0.  0.
479  4.78  0.  0.  0.
480  4.79  0.  0.  0.
481  4.80  0.  0.  0.
482  4.81  0.  0.  0.
483  4.82  0.  0.  0.
484  4.83  0.  0.  0.
485  4.84  0.  0.  0.
486  4.85  0.  0.  0.
487  4.86  0.  0.  0.
488  4.87  0.  0.  0.
489  4.88  0.  0.  0.
490  4.89  0.  0.  0.
491  4.90  0.  0.  0.
492  4.91  0.  0.  0.
493  4.92  0.  0.  0.
494  4.93  0.  0.  0.
495  4.94  0.  0.  0.
496  4.95  0.  0.  0.
497  4.96  0.  0.  0.
498  4.97  0.  0.  0.
499  4.98  0.  0.  0.
500  4.99  0.  0.  0.
501  5.00  0.  0.  0.
502  5.01  0.  0.  0.
503  5.02  0.  0.  0.
504  5.03  0.  0.  0.
505  5.04  0.  0.  0.
506  5.05  0.  0.  0.
507  5.06  0.  0.  0.
508  5.07  0.  0.  0.
509  5.08  0.  0.  0.
510  5.09  0.  0.  0.
511  5.10  0.  0.  0.
512  5.11  0.  0.  0.
513  5.12  0.  0.  0.
514  5.13  0.  0.  0.
515  5.14  0.  0.  0.
516  5.15  0.  0.  0.
517  5.16  0.  0.  0.
518  5.17  0.  0.  0.
519  5.18  0.  0.  0.
520  5.19  0.  0.  0.
521  5.20  0.  0.  0.
522  5.21  0.  0.  0.
523  5.22  0.  0.  0.
524  5.23  0.  0.  0.
525  5.24  0.  0.  0.
526  5.25  0.  0.  0.
527  5.26  0.  0.  0.
528  5.27  0.  0.  0.
529  5.28  0.  0.  0.
530  5.29  0.  0.  0.
531  5.30  0.  0.  0.
532  5.31  0.  0.  0.
533  5.32  0.  0.  0.
534  5.33  0.  0.  0.
535  5.34  0.  0.  0.
536  5.35  0.  0.  0.
537  5.36  0.  0.  0.
538  5.37  0.  0.  0.
539  5.38  0.  0.  0.
540  5.39  0.  0.  0.
541  5.40  0.  0.  0.
542  5.41  0.  0.  0.
543  5.42  0.  0.  0.
544  5.43  0.  0.  0.
545  5.44  0.  0.  0.
546  5.45  0.  0.  0.
547  5.46  0.  0.  0.
548  5.47  0.  0.  0.
549  5.48  0.  0.  0.
550  5.49  0.  0.  0.
551  5.50  0.  0.  0.
552  5.51  0.  0.  0.
553  5.52  0.  0.  0.
554  5.53  0.  0.  0.
555  5.54  0.  0.  0.
556  5.55  0.  0.  0.
557  5.56  0.  0.  0.
558  5.57  0.  0.  0.
559  5.58  0.  0.  0.
560  5.59  0.  0.  0.
561  5.60  0.  0.  0.
562  5.61  0.  0.  0.
563  5.62  0.  0.  0.
564  5.63  0.  0.  0.
565  5.64  0.  0.  0.
566  5.65  0.  0.  0.
567  5.66  0.  0.  0.
568  5.67  0.  0.  0.
569  5.68  0.  0.  0.
570  5.69  0.  0.  0.
571  5.70  0.  0.  0.
572  5.71  0.  0.  0.
573  5.72  0.  0.  0.
574  5.73  0.  0.  0.
575  5.74  0.  0.  0.
576  5.75  0.  0.  0.
577  5.76  0.  0.  0.
578  5.77  0.  0.  0.
579  5.78  0.  0.  0.
580  5.79  0.  0.  0.
581  5.80  0.  0.  0.
582  5.81  0.  0.  0.
583  5.82  0.  0.  0.
584  5.83  0.  0.  0.
585  5.84  0.  0.  0.
586  5.85  0.  0.  0.
587  5.86  0.  0.  0.
588  5.87  0.  0.  0.
589  5.88  0.  0.  0.
590  5.89  0.  0.  0.
591  5.90  0.  0.  0.
592  5.91  0.  0.  0.
593  5.92  0.  0.  0.
594  5.93  0.  0.  0.
595  5.94  0.  0.  0.
596  5.95  0.  0.  0.
597  5.96  0.  0.  0.
598  5.97  0.  0.  0.
599  5.98  0.  0.  0.
600  5.99  0.  0.  0.
1                         6.9135089278394E+00  7.6087521377740E-01
1  0.0000000000000E+00  2.6289340426811E-09 -1.0926091295604E-08
2  1.0000000000000E-02  1.1755930625443E-03 -1.5209422508632E-03
3  2.0000000000000E-02  4.6953376639689E-03 -6.0606806089974E-03
4  3.0000000000000E-02  1.0538220937842E-02 -1.3550326251872E-02
5  4.0000000000000E-02  1.8669522894819E-02 -2.3876312730724E-02
6  5.0000000000000E-02  2.9041263313577E-02 -3.6882246476305E-02
7  6.0000000000000E-02  4.1592816899500E-02 -5.2371454125746E-02
8  7.0000000000000E-02  5.6251686439447E-02 -7.0110184155151E-02
9  8.0000000000000E-02  7.2934421051987E-02 -8.9831409376448E-02
10  9.0000000000000E-02  9.1547664225590E-02 -1.1123916681859E-01
11  1.0000000000000E-01  1.1198931419420E-01 -1.3401336253038E-01
12  1.1000000000000E-01  1.3414977735715E-01 -1.5781496106411E-01
13  1.2000000000000E-01  1.5791329394070E-01 -1.8229147295634E-01
14  1.3000000000000E-01  1.8315931394740E-01 -2.0708264852179E-01
15  1.4000000000000E-01  2.0976390066788E-01 -2.3182628280402E-01
16  1.5000000000000E-01  2.3760113864988E-01 -2.5616403463936E-01
17  1.6000000000000E-01  2.6654452303997E-01 -2.7974716252327E-01
18  1.7000000000000E-01  2.9646830763239E-01 -3.0224208132552E-01
19  1.8000000000000E-01  3.2724878977223E-01 -3.2333564686215E-01
20  1.9000000000000E-01  3.5876551145089E-01 -3.4274007985010E-01
21  2.0000000000000E-01  3.9090235748190E-01 -3.6019744677192E-01
22  2.1000000000000E-01  4.2354853352762E-01 -3.7548362256391E-01
23  2.2000000000000E-01  4.5659940892975E-01 -3.8841166869151E-01
24  2.3000000000000E-01  4.8995721174170E-01 -3.9883456994660E-01
25  2.4000000000000E-01  5.2353156602699E-01 -4.0664728403263E-01
26  2.5000000000000E-01  5.5723986432793E-01 -4.1178806951679E-01
27  2.6000000000000E-01  5.9100747117503E-01 -4.1423906983256E-01
28  2.7000000000000E-01  6.2476775654700E-01 -4.1402614351035E-01
29  2.8000000000000E-01  6.5846196125223E-01 -4.1121794348934E-01
30  2.9000000000000E-01  6.9203889923107E-01 -4.0592426101002E-01
31  3.0000000000000E-01  7.2545450472097E-01 -3.9829366199015E-01
32  3.1000000000000E-01  7.5867123503244E-01 -3.8851045574213E-01
33  3.2000000000000E-01  7.9165734230249E-01 -3.7679104719222E-01
34  3.3000000000000E-01  8.2438602997835E-01 -3.6337973422503E-01
35  3.4000000000000E-01  8.5683451189371E-01 -3.4854402121945E-01
36  3.5000000000000E-01  8.8898299359626E-01 -3.3256952810729E-01
37  3.6000000000000E-01  9.2081359703507E-01 -3.1575458123066E-01
38  3.7000000000000E-01  9.5230925079302E-01 -2.9840457777954E-01
39  3.8000000000000E-01  9.8345256873319E-01 -2.8082621956269E-01
40  3.9000000000000E-01  1.0142247402047E+00 -2.6332171423218E-01
41  4.0000000000000E-01  1.0446044548170E+00 -2.4618304280187E-01
42  4.1000000000000E-01  1.0745668842428E+00 -2.2968639135834E-01
43  4.2000000000000E-01  1.1040827425562E+00 -2.1408684227133E-01
44  4.3000000000000E-01  1.1331174452711E+00 -1.9961341601026E-01
45  4.4000000000000E-01  1.1616303855335E+00 -1.8646454893281E-01
46  4.5000000000000E-01  1.1895743438760E+00 -1.7480408522377E-01