Dy    ONCVPSP-4.0.1  r_core=   2.00176   1.60430   1.90822   1.50213
66.0000     20.0000      241101    zatom,zion,pspd
8      11   3     4   600     0    pspcod,pspxc,lmax,lloc,mmax,r2well
5.99000000  4.00000000  0.00000000    rchrg fchrg qchrg
2     2     2     2     0    nproj
1     1           extension_switch
0                         6.7909557892975E+00  7.5798083056829E-01
1  0.0000000000000E+00  8.6302798241178E-11 -2.7368675034611E-10
2  1.0000000000000E-02  4.2315981255619E-02 -2.9419611384714E-03
3  2.0000000000000E-02  8.4607775174748E-02 -5.9171755540648E-03
4  3.0000000000000E-02  1.2685101454902E-01 -8.9582916673036E-03
5  4.0000000000000E-02  1.6902097468319E-01 -1.2096754978309E-02
6  5.0000000000000E-02  2.1109240027170E-01 -1.5362223518449E-02
7  6.0000000000000E-02  2.5303933895772E-01 -1.8782003400579E-02
8  7.0000000000000E-02  2.9483498369995E-01 -2.2380510843309E-02
9  8.0000000000000E-02  3.3645152598613E-01 -2.6178766771063E-02
10  9.0000000000000E-02  3.7786002182616E-01 -3.0193929754521E-02
11  1.0000000000000E-01  4.1903027233155E-01 -3.4438872658767E-02
12  1.1000000000000E-01  4.5993072054536E-01 -3.8921807912860E-02
13  1.2000000000000E-01  5.0052836602585E-01 -4.3645965809195E-02
14  1.3000000000000E-01  5.4078869851269E-01 -4.8609329688567E-02
15  1.4000000000000E-01  5.8067565181534E-01 -5.3804431273135E-02
16  1.5000000000000E-01  6.2015157886308E-01 -5.9218208779813E-02
17  1.6000000000000E-01  6.5917724864583E-01 -6.4831929787743E-02
18  1.7000000000000E-01  6.9771186555677E-01 -7.0621180151458E-02
19  1.8000000000000E-01  7.3571311142356E-01 -7.6555919553292E-02
20  1.9000000000000E-01  7.7313721028749E-01 -8.2600603581263E-02
21  2.0000000000000E-01  8.0993901576010E-01 -8.8714371509112E-02
22  2.1000000000000E-01  8.4607212055844E-01 -9.4851298250980E-02
23  2.2000000000000E-01  8.8148898759381E-01 -1.0096070827077E-01
24  2.3000000000000E-01  9.1614110176789E-01 -1.0698754855349E-01
25  2.4000000000000E-01  9.4997914141602E-01 -1.1287281709902E-01
26  2.5000000000000E-01  9.8295316813252E-01 -1.1855404278522E-01
27  2.6000000000000E-01  1.0150128335194E+00 -1.2396581187243E-01
28  2.7000000000000E-01  1.0461076012183E+00 -1.2904033589302E-01
29  2.8000000000000E-01  1.0761869824211E+00 -1.3370805519173E-01
30  2.9000000000000E-01  1.1052007829031E+00 -1.3789827196128E-01
31  3.0000000000000E-01  1.1330993594934E+00 -1.4153980625790E-01
32  3.1000000000000E-01  1.1598338837835E+00 -1.4456166818654E-01
33  3.2000000000000E-01  1.1853566107844E+00 -1.4689373922026E-01
34  3.3000000000000E-01  1.2096211501731E+00 -1.4846745546362E-01
35  3.4000000000000E-01  1.2325827377188E+00 -1.4921648559105E-01
36  3.5000000000000E-01  1.2541985044599E+00 -1.4907739618581E-01
37  3.6000000000000E-01  1.2744277411948E+00 -1.4799029727791E-01
38  3.7000000000000E-01  1.2932321558775E+00 -1.4589946102690E-01
39  3.8000000000000E-01  1.3105761215500E+00 -1.4275390671935E-01
40  3.9000000000000E-01  1.3264269125141E+00 -1.3850794554839E-01
41  4.0000000000000E-01  1.3407549265360E+00 -1.3312167901145E-01
42  4.1000000000000E-01  1.3535338909888E+00 -1.2656144520020E-01
43  4.2000000000000E-01  1.3647410509717E+00 -1.1880020775868E-01
44  4.3000000000000E-01  1.3743573375998E+00 -1.0981788284799E-01
45  4.4000000000000E-01  1.3823675148258E+00 -9.9601600073456E-02
46  4.5000000000000E-01  1.3887603033470E+00 -8.8145893996292E-02
47  4.6000000000000E-01  1.3935284803514E+00 -7.5452823561248E-02
48  4.7000000000000E-01  1.3966689540740E+00 -6.1532017516742E-02
49  4.8000000000000E-01  1.3981828123597E+00 -4.6400644677475E-02
50  4.9000000000000E-01  1.3980753446683E+00 -3.0083308673975E-02
51  5.0000000000000E-01  1.3963560371954E+00 -1.2611867640125E-02
52  5.1000000000000E-01  1.3930385410323E+00  5.9748198983908E-03
53  5.2000000000000E-01  1.3881406135365E+00  2.5631220864968E-02
54  5.3000000000000E-01  1.3816840333300E+00  4.6305522337758E-02
55  5.4000000000000E-01  1.3736944895890E+00  6.7940091481608E-02
56  5.5000000000000E-01  1.3642014465281E+00  9.0471996324161E-02
57  5.6000000000000E-01  1.3532379842108E+00  1.1383358228686E-01
58  5.7000000000000E-01  1.3408406170427E+00  1.3795309872095E-01
59  5.8000000000000E-01  1.3270490915084E+00  1.6275536909035E-01
60  5.9000000000000E-01  1.3119061649098E+00  1.8816249789524E-01
61  6.0000000000000E-01  1.2954573670402E+00  2.1409460694909E-01
62  6.1000000000000E-01  1.2777507468854E+00  2.4047059321237E-01
63  6.2000000000000E-01  1.2588366065853E+00  2.6720890005556E-01
64  6.3000000000000E-01  1.2387672250036E+00  2.9422829357400E-01
65  6.4000000000000E-01  1.2175965733493E+00  3.2144863541422E-01
66  6.5000000000000E-01  1.1953800253651E+00  3.4879164349600E-01
67  6.6000000000000E-01  1.1721740646424E+00  3.7618163202926E-01
68  6.7000000000000E-01  1.1480359916457E+00  4.0354622233194E-01
69  6.8000000000000E-01  1.1230236330250E+00  4.3081701615165E-01
70  6.9000000000000E-01  1.0971950557648E+00  4.5793022348243E-01
71  7.0000000000000E-01  1.0706082886662E+00  4.8482723724312E-01
72  7.1000000000000E-01  1.0433210535792E+00  5.1145514764556E-01
73  7.2000000000000E-01  1.0153905087001E+00  5.3776718962284E-01
74  7.3000000000000E-01  9.8687300612653E-01  5.6372311730778E-01
75  7.4000000000000E-01  9.5782386571479E-01  5.8928950024176E-01
76  7.5000000000000E-01  9.2829716712002E-01  6.1443993674923E-01
77  7.6000000000000E-01  8.9834556171662E-01  6.3915518072643E-01
78  7.7000000000000E-01  8.6802010589592E-01  6.6342317895533E-01
79  7.8000000000000E-01  8.3737011702471E-01  6.8723901695843E-01
80  7.9000000000000E-01  8.0644305312246E-01  7.1060477234761E-01
81  8.0000000000000E-01  7.7528441707951E-01  7.3352927558122E-01
82  8.1000000000000E-01  7.4393768599524E-01  7.5602777901974E-01
83  8.2000000000000E-01  7.1244426596754E-01  7.7812153615060E-01
84  8.3000000000000E-01  6.8084347241388E-01  7.9983729382939E-01
85  8.4000000000000E-01  6.4917253575356E-01  8.2120670134635E-01
86  8.5000000000000E-01  6.1746663203141E-01  8.4226564106614E-01
87  8.6000000000000E-01  5.8575893781916E-01  8.6305348629520E-01
88  8.7000000000000E-01  5.5408070849198E-01  8.8361229289667E-01
89  8.8000000000000E-01  5.2246137874854E-01  9.0398593198942E-01
90  8.9000000000000E-01  4.9092868402344E-01  9.2421917182799E-01
91  9.0000000000000E-01  4.5950880123400E-01  9.4435671765712E-01
92  9.1000000000000E-01  4.2822650710979E-01  9.6444221896175E-01
93  9.2000000000000E-01  3.9710535217475E-01  9.8451725408668E-01
94  9.3000000000000E-01  3.6616784828941E-01  1.0046203026733E+00
95  9.4000000000000E-01  3.3543566751506E-01  1.0247857167516E+00
96  9.5000000000000E-01  3.0492984993384E-01  1.0450427016324E+00
97  9.6000000000000E-01  2.7467101794865E-01  1.0654143179596E+00
98  9.7000000000000E-01  2.4467959449537E-01  1.0859165164172E+00
99  9.8000000000000E-01  2.1497602252612E-01  1.1065572166205E+00
100  9.9000000000000E-01  1.8558098306740E-01  1.1273354416807E+00
101  1.0000000000000E+00  1.5651560911912E-01  1.1482405197919E+00
102  1.0100000000000E+00  1.2780169264096E-01  1.1692513639760E+00
103  1.0200000000000E+00  9.9461881868999E-02  1.1903358408144E+00
104  1.0300000000000E+00  7.1519866218768E-02  1.2114502386176E+00
105  1.0400000000000E+00  4.4000546059983E-02  1.2325388450191E+00
106  1.0500000000000E+00  1.6930184691790E-02  1.2535336434489E+00
107  1.0600000000000E+00 -9.6634600938163E-03  1.2743541373326E+00
108  1.0700000000000E+00 -3.5751027399995E-02  1.2949073101852E+00
109  1.0800000000000E+00 -6.1301470017451E-02  1.3150877290252E+00
110  1.0900000000000E+00 -8.6281998973220E-02  1.3347777977202E+00
111  1.1000000000000E+00 -1.1065805807302E-01  1.3538481660003E+00
112  1.1100000000000E+00 -1.3439333054453E-01  1.3721582989284E+00
113  1.1200000000000E+00 -1.5744977974314E-01  1.3895572106064E+00
114  1.1300000000000E+00 -1.7978772571972E-01  1.4058843648101E+00
115  1.1400000000000E+00 -2.0136595926756E-01  1.4209707440866E+00
116  1.1500000000000E+00 -2.2214189486414E-01  1.4346400876090E+00
117  1.1600000000000E+00 -2.4207176369587E-01  1.4467102967507E+00
118  1.1700000000000E+00 -2.6111084770139E-01  1.4569950059141E+00
119  1.1800000000000E+00 -2.7921375528333E-01  1.4653053146113E+00
120  1.1900000000000E+00 -2.9633473901928E-01  1.4714516751313E+00
121  1.2000000000000E+00 -3.1242805534152E-01  1.4752459283317E+00
122  1.2100000000000E+00 -3.2744836574823E-01  1.4765034781323E+00
123  1.2200000000000E+00 -3.4135117865116E-01  1.4750455931695E+00
124  1.2300000000000E+00 -3.5409333044460E-01  1.4707018217302E+00
125  1.2400000000000E+00 -3.6563350379833E-01  1.4633125035538E+00
126  1.2500000000000E+00 -3.7593278051768E-01  1.4527313592957E+00
127  1.2600000000000E+00 -3.8495522557114E-01  1.4388281353815E+00
128  1.2700000000000E+00 -3.9266849805686E-01  1.4214912786360E+00
129  1.2800000000000E+00 -3.9904448394220E-01  1.4006306113676E+00
130  1.2900000000000E+00 -4.0405994436641E-01  1.3761799735380E+00
131  1.3000000000000E+00 -4.0769717213505E-01  1.3480997942119E+00
132  1.3100000000000E+00 -4.0994464773349E-01  1.3163795495863E+00
133  1.3200000000000E+00 -4.1079768474853E-01  1.2810400595540E+00
134  1.3300000000000E+00 -4.1025905299582E-01  1.2421355689094E+00
135  1.3400000000000E+00 -4.0833956589167E-01  1.1997555529023E+00
136  1.3500000000000E+00 -4.0505861666874E-01  1.1540261798506E+00
137  1.3600000000000E+00 -4.0044464590916E-01  1.1051113559078E+00
138  1.3700000000000E+00 -3.9453552054391E-01  1.0532132688082E+00
139  1.3800000000000E+00 -3.8737880191703E-01  9.9857233838606E-01
140  1.3900000000000E+00 -3.7903187773912E-01  9.4146647189230E-01
141  1.4000000000000E+00 -3.6956192973867E-01  8.8220951154827E-01
142  1.4100000000000E+00 -3.5904570553774E-01  8.2114875029959E-01
143  1.4200000000000E+00 -3.4756905974304E-01  7.5866137939883E-01
144  1.4300000000000E+00 -3.3522622538468E-01  6.9514971801699E-01
145  1.4400000000000E+00 -3.2211877270553E-01  6.3103506073771E-01
146  1.4500000000000E+00 -3.0835420783250E-01  5.6674996327036E-01
147  1.4600000000000E+00 -2.9404415904576E-01  5.0272877002694E-01
148  1.4700000000000E+00 -2.7930209320573E-01  4.3939616934196E-01
149  1.4800000000000E+00 -2.6424049810633E-01  3.7715353594618E-01
150  1.4900000000000E+00 -2.4896746233682E-01  3.1636281094101E-01
151  1.5000000000000E+00 -2.3358263278267E-01  2.5732794558690E-01
152  1.5100000000000E+00 -2.1817246631459E-01  2.0027362868442E-01
153  1.5200000000000E+00 -2.0281216156748E-01  1.4536233092294E-01
154  1.5300000000000E+00 -1.8757317013231E-01  9.2740222967801E-02
155  1.5400000000000E+00 -1.7252458718862E-01  4.2546206852639E-02
156  1.5500000000000E+00 -1.5773267429790E-01 -5.0898553448775E-03
157  1.5600000000000E+00 -1.4326049783784E-01 -5.0048286966554E-02
158  1.5700000000000E+00 -1.2916757144106E-01 -9.2220764586729E-02
159  1.5800000000000E+00 -1.1550952091178E-01 -1.3151140892199E-01
160  1.5900000000000E+00 -1.0233777437400E-01 -1.6783779031848E-01
161  1.6000000000000E+00 -8.9699280726731E-02 -2.0113183793639E-01
162  1.6100000000000E+00 -7.7636259007486E-02 -2.3134064377997E-01
163  1.6200000000000E+00 -6.6185982075569E-02 -2.5842714829262E-01
164  1.6300000000000E+00 -5.5380595184166E-02 -2.8237070802811E-01
165  1.6400000000000E+00 -4.5246973403155E-02 -3.0316752849275E-01
166  1.6500000000000E+00 -3.5806618599172E-02 -3.2083096103301E-01
167  1.6600000000000E+00 -2.7075596878303E-02 -3.3539166113959E-01
168  1.6700000000000E+00 -1.9064518349575E-02 -3.4689760023761E-01
169  1.6800000000000E+00 -1.1778559225094E-02 -3.5541393168310E-01
170  1.6900000000000E+00 -5.2175266223402E-03 -3.6102270936782E-01
171  1.7000000000000E+00  6.2403414204893E-04 -3.6382245964280E-01
172  1.7100000000000E+00  5.7566903441799E-03 -3.6392760852503E-01
173  1.7200000000000E+00  1.0195931719985E-02 -3.6146776763064E-01
174  1.7300000000000E+00  1.3961940742291E-02 -3.5658688345183E-01
175  1.7400000000000E+00  1.7079325047540E-02 -3.4944225605755E-01
176  1.7500000000000E+00  1.9576814090377E-02 -3.4020343446931E-01
177  1.7600000000000E+00  2.1486922462110E-02 -3.2905099724043E-01
178  1.7700000000000E+00  2.2845582622708E-02 -3.1617522786519E-01
179  1.7800000000000E+00  2.3691750084064E-02 -3.0177469565185E-01
180  1.7900000000000E+00  2.4066984378831E-02 -2.8605475376397E-01
181  1.8000000000000E+00  2.4015009372389E-02 -2.6922596690509E-01
182  1.8100000000000E+00  2.3581256679039E-02 -2.5150248183606E-01
183  1.8200000000000E+00  2.2812396140106E-02 -2.3310035462808E-01
184  1.8300000000000E+00  2.1755857450818E-02 -2.1423584900190E-01
185  1.8400000000000E+00  2.0459347112689E-02 -1.9512372041325E-01
186  1.8500000000000E+00  1.8970364977306E-02 -1.7597550088178E-01
187  1.8600000000000E+00  1.7335724569644E-02 -1.5699779921742E-01
188  1.8700000000000E+00  1.5601083980702E-02 -1.3839063986051E-01
189  1.8800000000000E+00  1.3810469111871E-02 -1.2034578641232E-01
190  1.8900000000000E+00  1.2005883988476E-02 -1.0304533317419E-01
191  1.9000000000000E+00  1.0226801428629E-02 -8.6659973873046E-02
192  1.9100000000000E+00  8.5085126667270E-03 -7.1343865258641E-02
193  1.9200000000000E+00  6.8825179439966E-03 -5.7235495867501E-02
194  1.9300000000000E+00  5.3798212791601E-03 -4.4467266124970E-02
195  1.9400000000000E+00  4.0273185433297E-03 -3.3154824463287E-02
196  1.9500000000000E+00  2.8475906290650E-03 -2.3396279834904E-02
197  1.9600000000000E+00  1.8586623912069E-03 -1.5271348850501E-02
198  1.9700000000000E+00  1.0740961409013E-03 -8.8430222872429E-03
199  1.9800000000000E+00  5.0058102613992E-04 -4.1378181265695E-03
200  1.9900000000000E+00  1.4536477235087E-04 -1.2090065661272E-03
201  2.0000000000000E+00  7.9184097965386E-06 -6.6431816752802E-05
202  2.0100000000000E+00 -4.8006511738576E-06  4.0363599267809E-05
203  2.0200000000000E+00  2.1738821214585E-06 -1.8173032981751E-05
204  2.03 -0.  0.
205  2.04 -0. -0.
206  2.05 -0. -0.
207  2.06  0.  0.
208  2.07  0.  0.
209  2.08  0.  0.
210  2.09  0.  0.
211  2.10  0.  0.
212  2.11  0.  0.
213  2.12  0.  0.
214  2.13  0.  0.
215  2.14  0.  0.
216  2.15  0.  0.
217  2.16  0.  0.
218  2.17  0.  0.
219  2.18  0.  0.
220  2.19  0.  0.
221  2.20  0.  0.
222  2.21  0.  0.
223  2.22  0.  0.
224  2.23  0.  0.
225  2.24  0.  0.
226  2.25  0.  0.
227  2.26  0.  0.
228  2.27  0.  0.
229  2.28  0.  0.
230  2.29  0.  0.
231  2.30  0.  0.
232  2.31  0.  0.
233  2.32  0.  0.
234  2.33  0.  0.
235  2.34  0.  0.
236  2.35  0.  0.
237  2.36  0.  0.
238  2.37  0.  0.
239  2.38  0.  0.
240  2.39  0.  0.
241  2.40  0.  0.
242  2.41  0.  0.
243  2.42  0.  0.
244  2.43  0.  0.
245  2.44  0.  0.
246  2.45  0.  0.
247  2.46  0.  0.
248  2.47  0.  0.
249  2.48  0.  0.
250  2.49  0.  0.
251  2.50  0.  0.
252  2.51  0.  0.
253  2.52  0.  0.
254  2.53  0.  0.
255  2.54  0.  0.
256  2.55  0.  0.
257  2.56  0.  0.
258  2.57  0.  0.
259  2.58  0.  0.
260  2.59  0.  0.
261  2.60  0.  0.
262  2.61  0.  0.
263  2.62  0.  0.
264  2.63  0.  0.
265  2.64  0.  0.
266  2.65  0.  0.
267  2.66  0.  0.
268  2.67  0.  0.
269  2.68  0.  0.
270  2.69  0.  0.
271  2.70  0.  0.
272  2.71  0.  0.
273  2.72  0.  0.
274  2.73  0.  0.
275  2.74  0.  0.
276  2.75  0.  0.
277  2.76  0.  0.
278  2.77  0.  0.
279  2.78  0.  0.
280  2.79  0.  0.
281  2.80  0.  0.
282  2.81  0.  0.
283  2.82  0.  0.
284  2.83  0.  0.
285  2.84  0.  0.
286  2.85  0.  0.
287  2.86  0.  0.
288  2.87  0.  0.
289  2.88  0.  0.
290  2.89  0.  0.
291  2.90  0.  0.
292  2.91  0.  0.
293  2.92  0.  0.
294  2.93  0.  0.
295  2.94  0.  0.
296  2.95  0.  0.
297  2.96  0.  0.
298  2.97  0.  0.
299  2.98  0.  0.
300  2.99  0.  0.
301  3.00  0.  0.
302  3.01  0.  0.
303  3.02  0.  0.
304  3.03  0.  0.
305  3.04  0.  0.
306  3.05  0.  0.
307  3.06  0.  0.
308  3.07  0.  0.
309  3.08  0.  0.
310  3.09  0.  0.
311  3.10  0.  0.
312  3.11  0.  0.
313  3.12  0.  0.
314  3.13  0.  0.
315  3.14  0.  0.
316  3.15  0.  0.
317  3.16  0.  0.
318  3.17  0.  0.
319  3.18  0.  0.
320  3.19  0.  0.
321  3.20  0.  0.
322  3.21  0.  0.
323  3.22  0.  0.
324  3.23  0.  0.
325  3.24  0.  0.
326  3.25  0.  0.
327  3.26  0.  0.
328  3.27  0.  0.
329  3.28  0.  0.
330  3.29  0.  0.
331  3.30  0.  0.
332  3.31  0.  0.
333  3.32  0.  0.
334  3.33  0.  0.
335  3.34  0.  0.
336  3.35  0.  0.
337  3.36  0.  0.
338  3.37  0.  0.
339  3.38  0.  0.
340  3.39  0.  0.
341  3.40  0.  0.
342  3.41  0.  0.
343  3.42  0.  0.
344  3.43  0.  0.
345  3.44  0.  0.
346  3.45  0.  0.
347  3.46  0.  0.
348  3.47  0.  0.
349  3.48  0.  0.
350  3.49  0.  0.
351  3.50  0.  0.
352  3.51  0.  0.
353  3.52  0.  0.
354  3.53  0.  0.
355  3.54  0.  0.
356  3.55  0.  0.
357  3.56  0.  0.
358  3.57  0.  0.
359  3.58  0.  0.
360  3.59  0.  0.
361  3.60  0.  0.
362  3.61  0.  0.
363  3.62  0.  0.
364  3.63  0.  0.
365  3.64  0.  0.
366  3.65  0.  0.
367  3.66  0.  0.
368  3.67  0.  0.
369  3.68  0.  0.
370  3.69  0.  0.
371  3.70  0.  0.
372  3.71  0.  0.
373  3.72  0.  0.
374  3.73  0.  0.
375  3.74  0.  0.
376  3.75  0.  0.
377  3.76  0.  0.
378  3.77  0.  0.
379  3.78  0.  0.
380  3.79  0.  0.
381  3.80  0.  0.
382  3.81  0.  0.
383  3.82  0.  0.
384  3.83  0.  0.
385  3.84  0.  0.
386  3.85  0.  0.
387  3.86  0.  0.
388  3.87  0.  0.
389  3.88  0.  0.
390  3.89  0.  0.
391  3.90  0.  0.
392  3.91  0.  0.
393  3.92  0.  0.
394  3.93  0.  0.
395  3.94  0.  0.
396  3.95  0.  0.
397  3.96  0.  0.
398  3.97  0.  0.
399  3.98  0.  0.
400  3.99  0.  0.
401  4.00  0.  0.
402  4.01  0.  0.
403  4.02  0.  0.
404  4.03  0.  0.
405  4.04  0.  0.
406  4.05  0.  0.
407  4.06  0.  0.
408  4.07  0.  0.
409  4.08  0.  0.
410  4.09  0.  0.
411  4.10  0.  0.
412  4.11  0.  0.
413  4.12  0.  0.
414  4.13  0.  0.
415  4.14  0.  0.
416  4.15  0.  0.
417  4.16  0.  0.
418  4.17  0.  0.
419  4.18  0.  0.
420  4.19  0.  0.
421  4.20  0.  0.
422  4.21  0.  0.
423  4.22  0.  0.
424  4.23  0.  0.
425  4.24  0.  0.
426  4.25  0.  0.
427  4.26  0.  0.
428  4.27  0.  0.
429  4.28  0.  0.
430  4.29  0.  0.
431  4.30  0.  0.
432  4.31  0.  0.
433  4.32  0.  0.
434  4.33  0.  0.
435  4.34  0.  0.
436  4.35  0.  0.
437  4.36  0.  0.
438  4.37  0.  0.
439  4.38  0.  0.
440  4.39  0.  0.
441  4.40  0.  0.
442  4.41  0.  0.
443  4.42  0.  0.
444  4.43  0.  0.
445  4.44  0.  0.
446  4.45  0.  0.
447  4.46  0.  0.
448  4.47  0.  0.
449  4.48  0.  0.
450  4.49  0.  0.
451  4.50  0.  0.
452  4.51  0.  0.
453  4.52  0.  0.
454  4.53  0.  0.
455  4.54  0.  0.
456  4.55  0.  0.
457  4.56  0.  0.
458  4.57  0.  0.
459  4.58  0.  0.
460  4.59  0.  0.
461  4.60  0.  0.
462  4.61  0.  0.
463  4.62  0.  0.
464  4.63  0.  0.
465  4.64  0.  0.
466  4.65  0.  0.
467  4.66  0.  0.
468  4.67  0.  0.
469  4.68  0.  0.
470  4.69  0.  0.
471  4.70  0.  0.
472  4.71  0.  0.
473  4.72  0.  0.
474  4.73  0.  0.
475  4.74  0.  0.
476  4.75  0.  0.
477  4.76  0.  0.
478  4.77  0.  0.
479  4.78  0.  0.
480  4.79  0.  0.
481  4.80  0.  0.
482  4.81  0.  0.
483  4.82  0.  0.
484  4.83  0.  0.
485  4.84  0.  0.
486  4.85  0.  0.
487  4.86  0.  0.
488  4.87  0.  0.
489  4.88  0.  0.
490  4.89  0.  0.
491  4.90  0.  0.
492  4.91  0.  0.
493  4.92  0.  0.
494  4.93  0.  0.
495  4.94  0.  0.
496  4.95  0.  0.
497  4.96  0.  0.
498  4.97  0.  0.
499  4.98  0.  0.
500  4.99  0.  0.
501  5.00  0.  0.
502  5.01  0.  0.
503  5.02  0.  0.
504  5.03  0.  0.
505  5.04  0.  0.
506  5.05  0.  0.
507  5.06  0.  0.
508  5.07  0.  0.
509  5.08  0.  0.
510  5.09  0.  0.
511  5.10  0.  0.
512  5.11  0.  0.
513  5.12  0.  0.
514  5.13  0.  0.
515  5.14  0.  0.
516  5.15  0.  0.
517  5.16  0.  0.
518  5.17  0.  0.
519  5.18  0.  0.
520  5.19  0.  0.
521  5.20  0.  0.
522  5.21  0.  0.
523  5.22  0.  0.
524  5.23  0.  0.
525  5.24  0.  0.
526  5.25  0.  0.
527  5.26  0.  0.
528  5.27  0.  0.
529  5.28  0.  0.
530  5.29  0.  0.
531  5.30  0.  0.
532  5.31  0.  0.
533  5.32  0.  0.
534  5.33  0.  0.
535  5.34  0.  0.
536  5.35  0.  0.
537  5.36  0.  0.
538  5.37  0.  0.
539  5.38  0.  0.
540  5.39  0.  0.
541  5.40  0.  0.
542  5.41  0.  0.
543  5.42  0.  0.
544  5.43  0.  0.
545  5.44  0.  0.
546  5.45  0.  0.
547  5.46  0.  0.
548  5.47  0.  0.
549  5.48  0.  0.
550  5.49  0.  0.
551  5.50  0.  0.
552  5.51  0.  0.
553  5.52  0.  0.
554  5.53  0.  0.
555  5.54  0.  0.
556  5.55  0.  0.
557  5.56  0.  0.
558  5.57  0.  0.
559  5.58  0.  0.
560  5.59  0.  0.
561  5.60  0.  0.
562  5.61  0.  0.
563  5.62  0.  0.
564  5.63  0.  0.
565  5.64  0.  0.
566  5.65  0.  0.
567  5.66  0.  0.
568  5.67  0.  0.
569  5.68  0.  0.
570  5.69  0.  0.
571  5.70  0.  0.
572  5.71  0.  0.
573  5.72  0.  0.
574  5.73  0.  0.
575  5.74  0.  0.
576  5.75  0.  0.
577  5.76  0.  0.
578  5.77  0.  0.
579  5.78  0.  0.
580  5.79  0.  0.
581  5.80  0.  0.
582  5.81  0.  0.
583  5.82  0.  0.
584  5.83  0.  0.
585  5.84  0.  0.
586  5.85  0.  0.
587  5.86  0.  0.
588  5.87  0.  0.
589  5.88  0.  0.
590  5.89  0.  0.
591  5.90  0.  0.
592  5.91  0.  0.
593  5.92  0.  0.
594  5.93  0.  0.
595  5.94  0.  0.
596  5.95  0.  0.
597  5.96  0.  0.
598  5.97  0.  0.
599  5.98  0.  0.
600  5.99  0.  0.
1                         5.6428092831996E+00  3.5715118380206E-01
1  0.0000000000000E+00  3.5744859988585E-09 -2.2927425458175E-08
2  1.0000000000000E-02  1.3103782658657E-03 -2.5791712424937E-03
3  2.0000000000000E-02  5.2325809615606E-03 -1.0271432556988E-02
4  3.0000000000000E-02  1.1739933660510E-02 -2.2941801119133E-02
5  4.0000000000000E-02  2.0788383177144E-02 -4.0367873709360E-02
6  5.0000000000000E-02  3.2317096640323E-02 -6.2243632873138E-02
7  6.0000000000000E-02  4.6249285897035E-02 -8.8184684209757E-02
8  7.0000000000000E-02  6.2493243248738E-02 -1.1773483532248E-01
9  8.0000000000000E-02  8.0943570948202E-02 -1.5037390403540E-01
10  9.0000000000000E-02  1.0148258361837E-01 -1.8552662246739E-01
11  1.0000000000000E-01  1.2398185985419E-01 -2.2257248481133E-01
12  1.1000000000000E-01  1.4830391678417E-01 -2.6085637051534E-01
13  1.2000000000000E-01  1.7430397934446E-01 -2.9969976127713E-01
14  1.3000000000000E-01  2.0183181448974E-01 -3.3841236007129E-01
15  1.4000000000000E-01  2.3073359955949E-01 -3.7630391350405E-01
16  1.5000000000000E-01  2.6085379355227E-01 -4.1269603525128E-01
17  1.6000000000000E-01  2.9203698014313E-01 -4.4693382824285E-01
18  1.7000000000000E-01  3.2412965190860E-01 -4.7839710661364E-01
19  1.8000000000000E-01  3.5698190638879E-01 -5.0651102519039E-01
20  1.9000000000000E-01  3.9044902629602E-01 -5.3075593431173E-01
21  2.0000000000000E-01  4.2439291834536E-01 -5.5067629091539E-01
22  2.1000000000000E-01  4.5868338779550E-01 -5.6588847284906E-01
23  2.2000000000000E-01  4.9319922880264E-01 -5.7608736199703E-01
24  2.3000000000000E-01  5.2782911405276E-01 -5.8105158274837E-01
25  2.4000000000000E-01  5.6247227078866E-01 -5.8064730520592E-01
26  2.5000000000000E-01  5.9703893422389E-01 -5.7483054696196E-01
27  2.6000000000000E-01  6.3145057336670E-01 -5.6364793282895E-01
28  2.7000000000000E-01  6.6563988839292E-01 -5.4723589817727E-01
29  2.8000000000000E-01  6.9955058283380E-01 -5.2581834805010E-01
30  2.9000000000000E-01  7.3313691791056E-01 -4.9970281054555E-01
31  3.0000000000000E-01  7.6636306027915E-01 -4.6927514863090E-01
32  3.1000000000000E-01  7.9920223817722E-01 -4.3499291914326E-01
33  3.2000000000000E-01  8.3163572442371E-01 -3.9737749081990E-01
34  3.3000000000000E-01  8.6365166784837E-01 -3.5700505439152E-01
35  3.4000000000000E-01  8.9524379746845E-01 -3.1449667670554E-01
36  3.5000000000000E-01  9.2641002603281E-01 -2.7050756719818E-01
37  3.6000000000000E-01  9.5715098137976E-01 -2.2571573852680E-01
38  3.7000000000000E-01  9.8746849536959E-01 -1.8081025357572E-01
39  3.8000000000000E-01  1.0173640809334E+00 -1.3647925818385E-01
40  3.9000000000000E-01  1.0468374280109E+00 -9.3398002687861E-02
41  4.0000000000000E-01  1.0758849488283E+00 -5.2217055667425E-02
42  4.1000000000000E-01  1.1044984020940E+00 -1.3550910115200E-02
43  4.2000000000000E-01  1.1326636242869E+00  2.2032824313809E-02
44  4.3000000000000E-01  1.1603593942963E+00  5.4023459175249E-02
45  4.4000000000000E-01  1.1875564552796E+00  8.1976324411359E-02
46  4.5000000000000E-01  1.2142167147806E+00  1.0552076988636E-01
47  4.6000000000000E-01  1.2402926409402E+00  1.2436693484071E-01
48  4.7000000000000E-01  1.2657268690914E+00  1.3831116963540E-01
49  4.8000000000000E-01  1.2904520292300E+00  1.4724001692162E-01
50  4.9000000000000E-01  1.3143908008472E+00  1.5113268369764E-01
51  5.0000000000000E-01  1.3374561974822E+00  1.5006196118756E-01
52  5.1000000000000E-01  1.3595520791732E+00  1.4419357565835E-01
53  5.2000000000000E-01  1.3805738868180E+00  1.3378397973622E-01
54  5.3000000000000E-01  1.4004095883920E+00  1.1917662003622E-01
55  5.4000000000000E-01  1.4189408230718E+00  1.0079674253416E-01
56  5.5000000000000E-01  1.4360442256473E+00  7.9144821647903E-02
57  5.6000000000000E-01  1.4515929102485E+00  5.4788722039733E-02
58  5.7000000000000E-01  1.4654580894149E+00  2.8354723309105E-02
59  5.8000000000000E-01  1.4775108019559E+00  5.1755665827961E-04
60  5.9000000000000E-01  1.4876237209333E+00 -2.8010381038663E-02
61  6.0000000000000E-01  1.4956730114836E+00 -5.6490456824600E-02
62  6.1000000000000E-01  1.5015402071106E+00 -8.4169685523673E-02
63  6.2000000000000E-01  1.5051140725471E+00 -1.1029287129280E-01
64  6.3000000000000E-01  1.5062924213115E+00 -1.3411480641893E-01
65  6.4000000000000E-01  1.5049838566697E+00 -1.5491232647700E-01
66  6.5000000000000E-01  1.5011094058543E+00 -1.7199602392936E-01
67  6.6000000000000E-01  1.4946040190583E+00 -1.8472142855927E-01
68  6.7000000000000E-01  1.4854179068917E+00 -1.9249947267305E-01
69  6.8000000000000E-01  1.4735176926214E+00 -1.9480607159931E-01
70  6.9000000000000E-01  1.4588873585632E+00 -1.9119066543659E-01
71  7.0000000000000E-01  1.4415289694043E+00 -1.8128358597138E-01
72  7.1000000000000E-01  1.4214631589460E+00 -1.6480213289437E-01
73  7.2000000000000E-01  1.3987293707049E+00 -1.4155526551945E-01
74  7.3000000000000E-01  1.3733858469198E+00 -1.1144683977610E-01
75  7.4000000000000E-01  1.3455093647169E+00 -7.4477344883025E-02
76  7.5000000000000E-01  1.3151947224076E+00 -3.0744119391350E-02
77  7.6000000000000E-01  1.2825539830551E+00  1.9559948228513E-02
78  7.7000000000000E-01  1.2477154864811E+00  7.6149204035343E-02
79  7.8000000000000E-01  1.2108226447124E+00  1.3864944310457E-01
80  7.9000000000000E-01  1.1720325394301E+00  2.0660347557544E-01
81  8.0000000000000E-01  1.1315143432119E+00  2.7947794378900E-01
82  8.1000000000000E-01  1.0894475892014E+00  3.5667126992117E-01
83  8.2000000000000E-01  1.0460203162396E+00  4.3752259558899E-01
84  8.3000000000000E-01  1.0014271184250E+00  5.2132155947811E-01
85  8.4000000000000E-01  9.5586712948127E-01  6.0731874635337E-01
86  8.5000000000000E-01  9.0954197319821E-01  6.9473663107682E-01
87  8.6000000000000E-01  8.6265371154974E-01  7.8278083461038E-01
88  8.7000000000000E-01  8.1540282188155E-01  8.7065150551875E-01
89  8.8000000000000E-01  7.6798623380934E-01  9.5755464024545E-01
90  8.9000000000000E-01  7.2059545519069E-01  1.0427131583893E+00
91  9.0000000000000E-01  6.7341481475629E-01  1.1253775552803E+00
92  9.1000000000000E-01  6.2661984674441E-01  1.2048359632147E+00
93  9.2000000000000E-01  5.8037584021984E-01  1.2804234645694E+00
94  9.3000000000000E-01  5.3483657272329E-01  1.3515305144477E+00
95  9.4000000000000E-01  4.9014324454927E-01  1.4176103472409E+00
96  9.5000000000000E-01  4.4642362634841E-01  1.4781852602008E+00
97  9.6000000000000E-01  4.0379142896268E-01  1.5328516874748E+00
98  9.7000000000000E-01  3.6234590049525E-01  1.5812839996858E+00
99  9.8000000000000E-01  3.2217165166329E-01  1.6232369866524E+00
100  9.9000000000000E-01  2.8333870655006E-01  1.6585470038488E+00
101  1.0000000000000E+00  2.4590277203315E-01  1.6871317862955E+00
102  1.0100000000000E+00  2.0990571548244E-01  1.7089889563573E+00
103  1.0200000000000E+00  1.7537623686063E-01  1.7241932740158E+00
104  1.0300000000000E+00  1.4233071817807E-01  1.7328926991951E+00
105  1.0400000000000E+00  1.1077423040013E-01  1.7353033553525E+00
106  1.0500000000000E+00  8.0701675433638E-02  1.7317035014241E+00
107  1.0600000000000E+00  5.2099038758897E-02  1.7224266351026E+00
108  1.0700000000000E+00  2.4944726659090E-02  1.7078538640743E+00
109  1.0800000000000E+00 -7.8903914680384E-04  1.6884056930226E+00
110  1.0900000000000E+00 -2.5134797330505E-02  1.6645333828152E+00
111  1.1000000000000E+00 -4.8128421285259E-02  1.6367100441684E+00
112  1.1100000000000E+00 -6.9807719710812E-02  1.6054216312115E+00
113  1.1200000000000E+00 -9.0211090436081E-02  1.5711580007020E+00
114  1.1300000000000E+00 -1.0937625325575E-01  1.5344042002414E+00
115  1.1400000000000E+00 -1.2733908592004E-01  1.4956321437291E+00
116  1.1500000000000E+00 -1.4413258540738E-01  1.4552928246646E+00
117  1.1600000000000E+00 -1.5978597423548E-01  1.4138092077975E+00
118  1.1700000000000E+00 -1.7432396890795E-01  1.3715699273582E+00
119  1.1800000000000E+00 -1.8776622465787E-01  1.3289239057242E+00
120  1.1900000000000E+00 -2.0012696752248E-01  1.2861759902599E+00
121  1.2000000000000E+00 -2.1141482148689E-01  1.2435836883540E+00
122  1.2100000000000E+00 -2.2163283502702E-01  1.2013550616168E+00
123  1.2200000000000E+00 -2.3077870792864E-01  1.1596478201752E+00
124  1.2300000000000E+00 -2.3884521576016E-01  1.1185696369693E+00
125  1.2400000000000E+00 -2.4582082593457E-01  1.0781796805254E+00
126  1.2500000000000E+00 -2.5169049589065E-01  1.0384913427193E+00
127  1.2600000000000E+00 -2.5643664061437E-01  9.9947611590991E-01
128  1.2700000000000E+00 -2.6004025354347E-01  9.6106855177497E-01
129  1.2800000000000E+00 -2.6248216182710E-01  9.2317221204430E-01
130  1.2900000000000E+00 -2.6374439400038E-01  8.8566649950178E-01
131  1.3000000000000E+00 -2.6381163536538E-01  8.4841423607394E-01
132  1.3100000000000E+00 -2.6267274372068E-01  8.1126983339147E-01
133  1.3200000000000E+00 -2.6032229556373E-01  7.7408788011298E-01
134  1.3300000000000E+00 -2.5676213046322E-01  7.3673194933405E-01