Dy    ONCVPSP-4.0.1  r_core=   2.00176   1.60430   1.90822   1.35689
66.0000     20.0000      241104    zatom,zion,pspd
8      11   3     4   600     0    pspcod,pspxc,lmax,lloc,mmax,r2well
5.99000000  4.00000000  0.00000000    rchrg fchrg qchrg
3     2     2     2     0    nproj
1     1           extension_switch
0                         1.2497242658217E+01  2.9969889857072E+00  5.9640742749225E-01
1  0.0000000000000E+00 -1.0904723790617E-09  2.3052076636443E-09 -3.1880467710188E-09
2  1.0000000000000E-02  5.9827399236001E-02 -3.1781820016684E-02  4.8624239553184E-02
3  2.0000000000000E-02  1.1944804918652E-01 -6.3193032867071E-02  9.6726378000773E-02
4  3.0000000000000E-02  1.7865716819156E-01 -9.3867288536541E-02  1.4379043022779E-01
5  4.0000000000000E-02  2.3725388626838E-01 -1.2344670055430E-01  1.8931257150478E-01
6  5.0000000000000E-02  2.9504314229612E-01 -1.5158595145896E-01  2.3280703951040E-01
7  6.0000000000000E-02  3.5183751159807E-01 -1.7795624834981E-01  2.7381182483485E-01
8  7.0000000000000E-02  4.0745894201481E-01 -2.0224908128721E-01  3.1189408323930E-01
9  8.0000000000000E-02  4.6174037765227E-01 -2.2417973961124E-01  3.4665520613431E-01
10  9.0000000000000E-02  5.1452725082798E-01 -2.4349054407991E-01  3.7773548965939E-01
11  1.0000000000000E-01  5.6567882431255E-01 -2.5995375605698E-01  4.0481834735257E-01
12  1.1000000000000E-01  6.1506936775260E-01 -2.7337412876561E-01  4.2763401664281E-01
13  1.2000000000000E-01  6.6258915414638E-01 -2.8359106982740E-01  4.4596271522207E-01
14  1.3000000000000E-01  7.0814526440076E-01 -2.9048038887610E-01  4.5963720969161E-01
15  1.4000000000000E-01  7.5166219030395E-01 -2.9395560892384E-01  4.6854476566179E-01
16  1.5000000000000E-01  7.9308222867473E-01 -2.9396882530557E-01  4.7262845563638E-01
17  1.6000000000000E-01  8.3236566196934E-01 -2.9051110137911E-01  4.7188780845603E-01
18  1.7000000000000E-01  8.6949072321077E-01 -2.8361239565074E-01  4.6637879172447E-01
19  1.8000000000000E-01  9.0445334572305E-01 -2.7334102056774E-01  4.5621312641039E-01
20  1.9000000000000E-01  9.3726670077405E-01 -2.5980263880486E-01  4.4155694062170E-01
21  2.0000000000000E-01  9.6796052882286E-01 -2.4313880840636E-01  4.2262877729383E-01
22  2.1000000000000E-01  9.9658027260272E-01 -2.2352509356636E-01  3.9969697813862E-01
23  2.2000000000000E-01  1.0231860227158E+00 -2.0116876307158E-01  3.7307647356975E-01
24  2.3000000000000E-01  1.0478512887431E+00 -1.7630610343203E-01  3.4312501537629E-01
25  2.4000000000000E-01  1.0706616110543E+00 -1.4919937842788E-01  3.1023889557140E-01
26  2.5000000000000E-01  1.0917130305090E+00 -1.2013347114500E-01  2.7484820102092E-01
27  2.6000000000000E-01  1.1111104350505E+00 -8.9412248509400E-02  2.3741165908494E-01
28  2.7000000000000E-01  1.1289658037810E+00 -5.7354691808239E-02  1.9841113451272E-01
29  2.8000000000000E-01  1.1453963704558E+00 -2.4290839665122E-02  1.5834584216276E-01
30  2.9000000000000E-01  1.1605227294177E+00  9.4424076271977E-03  1.1772634371039E-01
31  3.0000000000000E-01  1.1744669078122E+00  4.3505571641860E-02  7.7068399324899E-02
32  3.1000000000000E-01  1.1873504284464E+00  7.7560915178910E-02  3.6886747289960E-02
33  3.2000000000000E-01  1.1992923878937E+00  1.1127674475352E-01 -2.3111143057499E-03
34  3.3000000000000E-01  1.2104075743776E+00  1.4433164348563E-01 -4.0031069396588E-02
35  3.4000000000000E-01  1.2208046496046E+00  1.7641858227153E-01 -7.5798375467469E-02
36  3.5000000000000E-01  1.2305844180516E+00  2.0724885835112E-01 -1.0916343242354E-01
37  3.6000000000000E-01  1.2398382062559E+00  2.3655581223973E-01 -1.3970725877501E-01
38  3.7000000000000E-01  1.2486463734172E+00  2.6409827644711E-01 -1.6704660827679E-01
39  3.8000000000000E-01  1.2570769731087E+00  2.8966371244035E-01 -1.9083866414764E-01
40  3.9000000000000E-01  1.2651845841297E+00  3.1307099588070E-01 -2.1078525274076E-01
41  4.0000000000000E-01  1.2730093265331E+00  3.3417281424738E-01 -2.2663652401157E-01
42  4.1000000000000E-01  1.2805760766460E+00  3.5285764550196E-01 -2.3819405226022E-01
43  4.2000000000000E-01  1.2878938925044E+00  3.6905129139473E-01 -2.4531331734941E-01
44  4.3000000000000E-01  1.2949556585629E+00  3.8271794431709E-01 -2.4790553384346E-01
45  4.4000000000000E-01  1.3017379558542E+00  3.9386077219018E-01 -2.4593880318776E-01
46  4.5000000000000E-01  1.3082011609871E+00  4.0252201169679E-01 -2.3943857207620E-01
47  4.6000000000000E-01  1.3142897745254E+00  4.0878256612777E-01 -2.2848738842780E-01
48  4.7000000000000E-01  1.3199329764175E+00  4.1276111016353E-01 -2.1322395482666E-01
49  4.8000000000000E-01  1.3250454032750E+00  4.1461270997009E-01 -1.9384148776872E-01
50  4.9000000000000E-01  1.3295281394773E+00  4.1452697297702E-01 -1.7058539949598E-01
51  5.0000000000000E-01  1.3332699113353E+00  4.1272574755640E-01 -1.4375032749165E-01
52  5.1000000000000E-01  1.3361484709167E+00  4.0946039845531E-01 -1.1367654474667E-01
53  5.2000000000000E-01  1.3380321536542E+00  4.0500868918254E-01 -8.0745791594095E-02
54  5.3000000000000E-01  1.3387815915609E+00  3.9967130754540E-01 -4.5376577149761E-02
55  5.4000000000000E-01  1.3382515617874E+00  3.9376807510190E-01 -8.0190050907545E-03
56  5.5000000000000E-01  1.3362929484133E+00  3.8763388538798E-01  3.0850815422270E-02
57  5.6000000000000E-01  1.3327547937803E+00  3.8161441933700E-01  7.0736707505422E-02
58  5.7000000000000E-01  1.3274864143898E+00  3.7606168927526E-01  1.1112864224154E-01
59  5.8000000000000E-01  1.3203395553989E+00  3.7132946523408E-01  1.5150915778366E-01
60  5.9000000000000E-01  1.3111705570921E+00  3.6776863899429E-01  1.9135990451575E-01
61  6.0000000000000E-01  1.2998425063779E+00  3.6572258229210E-01  2.3016823697564E-01
62  6.1000000000000E-01  1.2862273463741E+00  3.6552255590687E-01  2.6743377229559E-01
63  6.2000000000000E-01  1.2702079175039E+00  3.6748322594610E-01  3.0267483493181E-01
64  6.3000000000000E-01  1.2516799042228E+00  3.7189834252300E-01  3.3543470846198E-01
65  6.4000000000000E-01  1.2305536625282E+00  3.7903663420401E-01  3.6528761722119E-01
66  6.5000000000000E-01  1.2067559047619E+00  3.8913796911205E-01  3.9184436348997E-01
67  6.6000000000000E-01  1.1802312198750E+00  4.0240983042508E-01  4.1475754982857E-01
68  6.7000000000000E-01  1.1509434092801E+00  4.1902415025822E-01  4.3372632090875E-01
69  6.8000000000000E-01  1.1188766206222E+00  4.3911454160042E-01  4.4850056478080E-01
70  6.9000000000000E-01  1.0840362642545E+00  4.6277396315013E-01  4.5888451986085E-01
71  7.0000000000000E-01  1.0464496998523E+00  4.9005284662276E-01  4.6473974094968E-01
72  7.1000000000000E-01  1.0061666834227E+00  5.2095771045002E-01  4.6598738521834E-01
73  7.2000000000000E-01  9.6325956791638E-01  5.5545027783859E-01  4.6260978721315E-01
74  7.3000000000000E-01  9.1782325369610E-01  5.9344711097388E-01  4.5465130045065E-01
75  7.4000000000000E-01  8.6997488821224E-01  6.3481976682969E-01  4.4221839198028E-01
76  7.5000000000000E-01  8.1985331733869E-01  6.7939547366855E-01  4.2547898526343E-01
77  7.6000000000000E-01  7.6761829389961E-01  7.2695832095663E-01  4.0466105576921E-01
78  7.7000000000000E-01  7.1344945191013E-01  7.7725094918561E-01  3.8005049265858E-01
79  7.8000000000000E-01  6.5754505793822E-01  8.2997672004525E-01  3.5198824875322E-01
80  7.9000000000000E-01  6.0012055371598E-01  8.8480234163420E-01  3.2086680950820E-01
81  8.0000000000000E-01  5.4140690665810E-01  9.4136091799136E-01  2.8712601984960E-01
82  8.1000000000000E-01  4.8164878724381E-01  9.9925538725748E-01  2.5124831538241E-01
83  8.2000000000000E-01  4.2110259425357E-01  1.0580623083042E+00  2.1375341152605E-01
84  8.3000000000000E-01  3.6003435059917E-01  1.1173359517452E+00  1.7519251051887E-01
85  8.4000000000000E-01  2.9871749391453E-01  1.1766126479375E+00  1.3614209185358E-01
86  8.5000000000000E-01  2.3743058717365E-01  1.2354153419130E+00  9.7197356520654E-02
87  8.6000000000000E-01  1.7645497534956E-01  1.2932583031991E+00  5.8965399375020E-02
88  8.7000000000000E-01  1.1607241452078E-01  1.3496519372027E+00  2.2058186975256E-02
89  8.8000000000000E-01  5.6562699863781E-02  1.4041076442542E+00 -1.2914579653588E-02
90  8.9000000000000E-01 -1.7986813577845E-03  1.4561426725450E+00 -4.5352636730122E-02
91  9.0000000000000E-01 -5.8742846369798E-02  1.5052849120116E+00 -7.4672283072850E-02
92  9.1000000000000E-01 -1.1400973860748E-01  1.5510775777183E+00 -1.0031337898931E-01
93  9.2000000000000E-01 -1.6735025148077E-01  1.5930837334157E+00 -1.2174614017271E-01
94  9.3000000000000E-01 -2.1852823271032E-01  1.6308906086658E+00 -1.3847765053042E-01
95  9.4000000000000E-01 -2.6732234963903E-01  1.6641136661696E+00 -1.5005802109399E-01
96  9.5000000000000E-01 -3.1352779803486E-01  1.6924003796428E+00 -1.5608612611543E-01
97  9.6000000000000E-01 -3.5695783920041E-01  1.7154336866875E+00 -1.5621485205191E-01
98  9.7000000000000E-01 -3.9744515265318E-01  1.7329350855272E+00 -1.5015580029842E-01
99  9.8000000000000E-01 -4.3484299419164E-01  1.7446673491164E+00 -1.3768339015421E-01
100  9.9000000000000E-01 -4.6902615177524E-01  1.7504368349319E+00 -1.1863831452019E-01
101  1.0000000000000E+00 -4.9989169426461E-01  1.7500953735895E+00 -9.2930307104973E-02
102  1.0100000000000E+00 -5.2735951065821E-01  1.7435417242519E+00 -6.0540186411087E-02
103  1.0200000000000E+00 -5.5137263996068E-01  1.7307225894712E+00 -2.1521148350398E-02
104  1.0300000000000E+00 -5.7189739419449E-01  1.7116331866063E+00  2.4000714047647E-02
105  1.0400000000000E+00 -5.8892327927267E-01  1.6863173771597E+00  7.5826678799593E-02
106  1.0500000000000E+00 -6.0246272044501E-01  1.6548673592457E+00  1.3368645950574E-01
107  1.0600000000000E+00 -6.1255060078516E-01  1.6174229318591E+00  1.9724006843621E-01
108  1.0700000000000E+00 -6.1924362266918E-01  1.5741703426352E+00  2.6608047416916E-01
109  1.0800000000000E+00 -6.2261950338527E-01  1.5253407333256E+00  3.3973704378560E-01
110  1.0900000000000E+00 -6.2277601689902E-01  1.4712081992700E+00  4.1767975374432E-01
111  1.1000000000000E+00 -6.1982989436735E-01  1.4120874807090E+00  4.9932414776876E-01
112  1.1100000000000E+00 -6.1391559625602E-01  1.3483313048968E+00  5.8403701428059E-01
113  1.1200000000000E+00 -6.0518396887844E-01  1.2803273986704E+00  6.7114274998455E-01
114  1.1300000000000E+00 -5.9380079786796E-01  1.2084951914992E+00  7.5993037002861E-01
115  1.1400000000000E+00 -5.7994527054964E-01  1.1332822291615E+00  8.4966111848522E-01
116  1.1500000000000E+00 -5.6380835844921E-01  1.0551603181992E+00  9.3957662558120E-01
117  1.1600000000000E+00 -5.4559113031637E-01  9.7462142134654E-01  1.0289075497636E+00
118  1.1700000000000E+00 -5.2550300513220E-01  8.9217332438089E-01  1.1168826331560E+00
119  1.1800000000000E+00 -5.0375995369844E-01  8.0833509553463E-01  1.2027380877186E+00
120  1.1900000000000E+00 -4.8058265667550E-01  7.2363235995702E-01  1.2857272162364E+00
121  1.2000000000000E+00 -4.5619462646927E-01  6.3859241402270E-01  1.3651301565468E+00
122  1.2100000000000E+00 -4.3082030029563E-01  5.5373920785474E-01  1.4402636187186E+00
123  1.2200000000000E+00 -4.0468311222800E-01  4.6958822957967E-01  1.5104904627857E+00
124  1.2300000000000E+00 -3.7800355323977E-01  3.8664133203335E-01  1.5752289381936E+00
125  1.2400000000000E+00 -3.5099723035699E-01  3.0538155217869E-01  1.6339613751533E+00
126  1.2500000000000E+00 -3.2387293926471E-01  2.2626798596755E-01  1.6862420814602E+00
127  1.2600000000000E+00 -2.9683076930345E-01  1.4973079727187E-01  1.7317041553966E+00
128  1.2700000000000E+00 -2.7006026593415E-01  7.6166459201001E-02  1.7700648756201E+00
129  1.2800000000000E+00 -2.4373868382460E-01  5.9333505397699E-03  1.8011292707829E+00
130  1.2900000000000E+00 -2.1802937393334E-01 -6.0652140427228E-02  1.8247914047186E+00
131  1.3000000000000E+00 -1.9308036062864E-01 -1.2331881715142E-01  1.8410328363838E+00
132  1.3100000000000E+00 -1.6902318048710E-01 -1.8184295134519E-01  1.8499176253827E+00
133  1.3200000000000E+00 -1.4597207319220E-01 -2.3604935549353E-01  1.8515831535930E+00
134  1.3300000000000E+00 -1.2402363735218E-01 -2.8581091417974E-01  1.8462259194982E+00
135  1.3400000000000E+00 -1.0325709065951E-01 -3.3104616946699E-01  1.8340813304163E+00
136  1.3500000000000E+00 -8.3735300965319E-02 -3.7171449143570E-01  1.8153964701423E+00
137  1.3600000000000E+00 -6.5506823100047E-02 -4.0780816620062E-01  1.7903938475593E+00
138  1.3700000000000E+00 -4.8608157443926E-02 -4.3934424116069E-01  1.7592486309454E+00
139  1.3800000000000E+00 -3.3062949645112E-02 -4.6636743744115E-01  1.7221444807676E+00
140  1.3900000000000E+00 -1.8881184563238E-02 -4.8895355978174E-01  1.6793137483226E+00
141  1.4000000000000E+00 -6.0599840920706E-03 -5.0720761672576E-01  1.6310345316611E+00
142  1.4100000000000E+00  5.4155078492243E-03 -5.2126173349766E-01  1.5776275132461E+00
143  1.4200000000000E+00  1.5571154496271E-02 -5.3127284429039E-01  1.5194521333129E+00
144  1.4300000000000E+00  2.4442796197511E-02 -5.3742023514188E-01  1.4569024907661E+00
145  1.4400000000000E+00  3.2075176107982E-02 -5.3990296975268E-01  1.3904030095857E+00
146  1.4500000000000E+00  3.8520836566690E-02 -5.3893723095875E-01  1.3204039174544E+00
147  1.4600000000000E+00  4.3839000935521E-02 -5.3475361071595E-01  1.2473765873762E+00
148  1.4700000000000E+00  4.8094455173966E-02 -5.2759438069955E-01  1.1718087928642E+00
149  1.4800000000000E+00  5.1356442782734E-02 -5.1771077461536E-01  1.0941999271145E+00
150  1.4900000000000E+00  5.3697585899407E-02 -5.0536031179947E-01  1.0150562351356E+00
151  1.5000000000000E+00  5.5192844367451E-02 -4.9080418994445E-01  9.3488610633657E-01
152  1.5100000000000E+00  5.5918523498704E-02 -4.7430477271663E-01  8.5419547291051E-01
153  1.5200000000000E+00  5.5951340053451E-02 -4.5612319573890E-01  7.7348335689254E-01
154  1.5300000000000E+00  5.5367554651043E-02 -4.3651711181588E-01  6.9323760554547E-01
155  1.5400000000000E+00  5.4242177497746E-02 -4.1573859366530E-01  6.1393085175334E-01
156  1.5500000000000E+00  5.2648252912783E-02 -3.9403220955252E-01  5.3601673230861E-01
157  1.5600000000000E+00  5.0656226703934E-02 -3.7163328427692E-01  4.5992639302754E-01
158  1.5700000000000E+00  4.8333399071192E-02 -3.4876635512647E-01  3.8606530597418E-01
159  1.5800000000000E+00  4.5743464286529E-02 -3.2564382934825E-01  3.1481041947840E-01
160  1.5900000000000E+00  4.2946137087773E-02 -3.0246484689340E-01  2.4650765777058E-01
161  1.6000000000000E+00  3.9996864407435E-02 -2.7941434928260E-01  1.8146978247505E-01
162  1.6100000000000E+00  3.6946619921746E-02 -2.5666235294711E-01  1.1997462459605E-01
163  1.6200000000000E+00  3.3841777636278E-02 -2.3436342240703E-01  6.2263690144830E-02
164  1.6300000000000E+00  3.0724060039775E-02 -2.1265633720166E-01  8.5411411766321E-03
165  1.6400000000000E+00  2.7630555051037E-02 -1.9166394313378E-01 -4.1026853327330E-02
166  1.6500000000000E+00  2.4593795582783E-02 -1.7149317748251E-01 -8.6312403055557E-02
167  1.6600000000000E+00  2.1641894838890E-02 -1.5223525592302E-01 -1.2722582888353E-01
168  1.6700000000000E+00  1.8798729868386E-02 -1.3396600716233E-01 -1.6371525684505E-01
169  1.6800000000000E+00  1.6084165743721E-02 -1.1674634068083E-01 -1.9576588948083E-01
170  1.6900000000000E+00  1.3514312423410E-02 -1.0062283179063E-01 -2.2339897393456E-01
171  1.7000000000000E+00  1.1101806386050E-02 -8.5628407865426E-02 -2.4667048776997E-01
172  1.7100000000000E+00  8.8561091989950E-03 -7.1783119267614E-02 -2.6566956542518E-01
173  1.7200000000000E+00  6.7838153788684E-03 -5.9094978402676E-02 -2.8051668987963E-01
174  1.7300000000000E+00  4.8889623034992E-03 -4.7560850722789E-02 -2.9136167483978E-01
175  1.7400000000000E+00  3.1733353418676E-03 -3.7167381840380E-02 -2.9838146386752E-01
176  1.7500000000000E+00  1.6367619613264E-03 -2.7891945698974E-02 -3.0177777310235E-01
177  1.7600000000000E+00  2.7738918436372E-04 -1.9703599555057E-02 -3.0177460455949E-01
178  1.7700000000000E+00 -9.0806050018674E-04 -1.2564032625846E-02 -2.9861565673514E-01
179  1.7800000000000E+00 -1.9240588835975E-03 -6.4284964848147E-03 -2.9256165877039E-01
180  1.7900000000000E+00 -2.7760707831238E-03 -1.2467064877377E-03 -2.8388765402693E-01
181  1.8000000000000E+00 -3.4703842596746E-03  3.0362950061693E-03 -2.7288025785508E-01
182  1.8100000000000E+00 -4.0139739267860E-03  6.4793213840336E-03 -2.5983491324120E-01
183  1.8200000000000E+00 -4.4143981685597E-03  9.1442768825865E-03 -2.4505316701465E-01
184  1.8300000000000E+00 -4.6797302522051E-03  1.1095448909174E-02 -2.2883998784623E-01
185  1.8400000000000E+00 -4.8185225141377E-03  1.2398860927758E-02 -2.1150114566697E-01
186  1.8500000000000E+00 -4.8398021208772E-03  1.3121687998077E-02 -1.9334067090779E-01
187  1.8600000000000E+00 -4.7530962588813E-03  1.3331735782575E-02 -1.7465841043517E-01
188  1.8700000000000E+00 -4.5684638794909E-03  1.3096944310680E-02 -1.5574765193041E-01
189  1.8800000000000E+00 -4.2967378295221E-03  1.2485306632966E-02 -1.3689326703337E-01
190  1.8900000000000E+00 -3.9491008935101E-03  1.1563553528503E-02 -1.1836856053148E-01
191  1.9000000000000E+00 -3.5380333767918E-03  1.0398440781639E-02 -1.0043507606541E-01
192  1.9100000000000E+00 -3.0904527131514E-03  9.0810988646104E-03 -8.3367941975283E-02
193  1.9200000000000E+00 -2.6402935045624E-03  7.7126561766632E-03 -6.7438636433973E-02
194  1.9300000000000E+00 -2.1910558100624E-03  6.3331721513571E-03 -5.2835351643112E-02
195  1.9400000000000E+00 -1.7493990927851E-03  4.9845566585113E-03 -3.9731188541531E-02
196  1.9500000000000E+00 -1.3247308628952E-03  3.7095051642622E-03 -2.8281986941595E-02
197  1.9600000000000E+00 -9.2951001572914E-04  2.5518213977720E-03 -1.8625837142600E-02
198  1.9700000000000E+00 -5.7951233305214E-04  1.5568271506957E-03 -1.0885249847036E-02
199  1.9800000000000E+00 -2.9220749608418E-04  7.6720097460708E-04 -5.1419770862072E-03
200  1.9900000000000E+00 -9.2350145356755E-05  2.3657412617222E-04 -1.5178970207289E-03
201  2.0000000000000E+00 -5.8660605243036E-06  1.4467596790426E-05 -8.5245985795437E-05
202  2.0100000000000E+00  3.3229039109751E-06 -8.2858048493533E-06  5.1154013638068E-05
203  2.0200000000000E+00 -1.4334078290352E-06  3.6269755725722E-06 -2.2903220600691E-05
204  2.03  0. -0.  0.
205  2.04  0. -0.  0.
206  2.05  0. -0.  0.
207  2.06  0.  0.  0.
208  2.07  0.  0.  0.
209  2.08  0.  0.  0.
210  2.09  0.  0.  0.
211  2.10  0.  0.  0.
212  2.11  0.  0.  0.
213  2.12  0.  0.  0.
214  2.13  0.  0.  0.
215  2.14  0.  0.  0.
216  2.15  0.  0.  0.
217  2.16  0.  0.  0.
218  2.17  0.  0.  0.
219  2.18  0.  0.  0.
220  2.19  0.  0.  0.
221  2.20  0.  0.  0.
222  2.21  0.  0.  0.
223  2.22  0.  0.  0.
224  2.23  0.  0.  0.
225  2.24  0.  0.  0.
226  2.25  0.  0.  0.
227  2.26  0.  0.  0.
228  2.27  0.  0.  0.
229  2.28  0.  0.  0.
230  2.29  0.  0.  0.
231  2.30  0.  0.  0.
232  2.31  0.  0.  0.
233  2.32  0.  0.  0.
234  2.33  0.  0.  0.
235  2.34  0.  0.  0.
236  2.35  0.  0.  0.
237  2.36  0.  0.  0.
238  2.37  0.  0.  0.
239  2.38  0.  0.  0.
240  2.39  0.  0.  0.
241  2.40  0.  0.  0.
242  2.41  0.  0.  0.
243  2.42  0.  0.  0.
244  2.43  0.  0.  0.
245  2.44  0.  0.  0.
246  2.45  0.  0.  0.
247  2.46  0.  0.  0.
248  2.47  0.  0.  0.
249  2.48  0.  0.  0.
250  2.49  0.  0.  0.
251  2.50  0.  0.  0.
252  2.51  0.  0.  0.
253  2.52  0.  0.  0.
254  2.53  0.  0.  0.
255  2.54  0.  0.  0.
256  2.55  0.  0.  0.
257  2.56  0.  0.  0.
258  2.57  0.  0.  0.
259  2.58  0.  0.  0.
260  2.59  0.  0.  0.
261  2.60  0.  0.  0.
262  2.61  0.  0.  0.
263  2.62  0.  0.  0.
264  2.63  0.  0.  0.
265  2.64  0.  0.  0.
266  2.65  0.  0.  0.
267  2.66  0.  0.  0.
268  2.67  0.  0.  0.
269  2.68  0.  0.  0.
270  2.69  0.  0.  0.
271  2.70  0.  0.  0.
272  2.71  0.  0.  0.
273  2.72  0.  0.  0.
274  2.73  0.  0.  0.
275  2.74  0.  0.  0.
276  2.75  0.  0.  0.
277  2.76  0.  0.  0.
278  2.77  0.  0.  0.
279  2.78  0.  0.  0.
280  2.79  0.  0.  0.
281  2.80  0.  0.  0.
282  2.81  0.  0.  0.
283  2.82  0.  0.  0.
284  2.83  0.  0.  0.
285  2.84  0.  0.  0.
286  2.85  0.  0.  0.
287  2.86  0.  0.  0.
288  2.87  0.  0.  0.
289  2.88  0.  0.  0.
290  2.89  0.  0.  0.
291  2.90  0.  0.  0.
292  2.91  0.  0.  0.
293  2.92  0.  0.  0.
294  2.93  0.  0.  0.
295  2.94  0.  0.  0.
296  2.95  0.  0.  0.
297  2.96  0.  0.  0.
298  2.97  0.  0.  0.
299  2.98  0.  0.  0.
300  2.99  0.  0.  0.
301  3.00  0.  0.  0.
302  3.01  0.  0.  0.
303  3.02  0.  0.  0.
304  3.03  0.  0.  0.
305  3.04  0.  0.  0.
306  3.05  0.  0.  0.
307  3.06  0.  0.  0.
308  3.07  0.  0.  0.
309  3.08  0.  0.  0.
310  3.09  0.  0.  0.
311  3.10  0.  0.  0.
312  3.11  0.  0.  0.
313  3.12  0.  0.  0.
314  3.13  0.  0.  0.
315  3.14  0.  0.  0.
316  3.15  0.  0.  0.
317  3.16  0.  0.  0.
318  3.17  0.  0.  0.
319  3.18  0.  0.  0.
320  3.19  0.  0.  0.
321  3.20  0.  0.  0.
322  3.21  0.  0.  0.
323  3.22  0.  0.  0.
324  3.23  0.  0.  0.
325  3.24  0.  0.  0.
326  3.25  0.  0.  0.
327  3.26  0.  0.  0.
328  3.27  0.  0.  0.
329  3.28  0.  0.  0.
330  3.29  0.  0.  0.
331  3.30  0.  0.  0.
332  3.31  0.  0.  0.
333  3.32  0.  0.  0.
334  3.33  0.  0.  0.
335  3.34  0.  0.  0.
336  3.35  0.  0.  0.
337  3.36  0.  0.  0.
338  3.37  0.  0.  0.
339  3.38  0.  0.  0.
340  3.39  0.  0.  0.
341  3.40  0.  0.  0.
342  3.41  0.  0.  0.
343  3.42  0.  0.  0.
344  3.43  0.  0.  0.
345  3.44  0.  0.  0.
346  3.45  0.  0.  0.
347  3.46  0.  0.  0.
348  3.47  0.  0.  0.
349  3.48  0.  0.  0.
350  3.49  0.  0.  0.
351  3.50  0.  0.  0.
352  3.51  0.  0.  0.
353  3.52  0.  0.  0.
354  3.53  0.  0.  0.
355  3.54  0.  0.  0.
356  3.55  0.  0.  0.
357  3.56  0.  0.  0.
358  3.57  0.  0.  0.
359  3.58  0.  0.  0.
360  3.59  0.  0.  0.
361  3.60  0.  0.  0.
362  3.61  0.  0.  0.
363  3.62  0.  0.  0.
364  3.63  0.  0.  0.
365  3.64  0.  0.  0.
366  3.65  0.  0.  0.
367  3.66  0.  0.  0.
368  3.67  0.  0.  0.
369  3.68  0.  0.  0.
370  3.69  0.  0.  0.
371  3.70  0.  0.  0.
372  3.71  0.  0.  0.
373  3.72  0.  0.  0.
374  3.73  0.  0.  0.
375  3.74  0.  0.  0.
376  3.75  0.  0.  0.
377  3.76  0.  0.  0.
378  3.77  0.  0.  0.
379  3.78  0.  0.  0.
380  3.79  0.  0.  0.
381  3.80  0.  0.  0.
382  3.81  0.  0.  0.
383  3.82  0.  0.  0.
384  3.83  0.  0.  0.
385  3.84  0.  0.  0.
386  3.85  0.  0.  0.
387  3.86  0.  0.  0.
388  3.87  0.  0.  0.
389  3.88  0.  0.  0.
390  3.89  0.  0.  0.
391  3.90  0.  0.  0.
392  3.91  0.  0.  0.
393  3.92  0.  0.  0.
394  3.93  0.  0.  0.
395  3.94  0.  0.  0.
396  3.95  0.  0.  0.
397  3.96  0.  0.  0.
398  3.97  0.  0.  0.
399  3.98  0.  0.  0.
400  3.99  0.  0.  0.
401  4.00  0.  0.  0.
402  4.01  0.  0.  0.
403  4.02  0.  0.  0.
404  4.03  0.  0.  0.
405  4.04  0.  0.  0.
406  4.05  0.  0.  0.
407  4.06  0.  0.  0.
408  4.07  0.  0.  0.
409  4.08  0.  0.  0.
410  4.09  0.  0.  0.
411  4.10  0.  0.  0.
412  4.11  0.  0.  0.
413  4.12  0.  0.  0.
414  4.13  0.  0.  0.
415  4.14  0.  0.  0.
416  4.15  0.  0.  0.
417  4.16  0.  0.  0.
418  4.17  0.  0.  0.
419  4.18  0.  0.  0.
420  4.19  0.  0.  0.
421  4.20  0.  0.  0.
422  4.21  0.  0.  0.
423  4.22  0.  0.  0.
424  4.23  0.  0.  0.
425  4.24  0.  0.  0.
426  4.25  0.  0.  0.
427  4.26  0.  0.  0.
428  4.27  0.  0.  0.
429  4.28  0.  0.  0.
430  4.29  0.  0.  0.
431  4.30  0.  0.  0.
432  4.31  0.  0.  0.
433  4.32  0.  0.  0.
434  4.33  0.  0.  0.
435  4.34  0.  0.  0.
436  4.35  0.  0.  0.
437  4.36  0.  0.  0.
438  4.37  0.  0.  0.
439  4.38  0.  0.  0.
440  4.39  0.  0.  0.
441  4.40  0.  0.  0.
442  4.41  0.  0.  0.
443  4.42  0.  0.  0.
444  4.43  0.  0.  0.
445  4.44  0.  0.  0.
446  4.45  0.  0.  0.
447  4.46  0.  0.  0.
448  4.47  0.  0.  0.
449  4.48  0.  0.  0.
450  4.49  0.  0.  0.
451  4.50  0.  0.  0.
452  4.51  0.  0.  0.
453  4.52  0.  0.  0.
454  4.53  0.  0.  0.
455  4.54  0.  0.  0.
456  4.55  0.  0.  0.
457  4.56  0.  0.  0.
458  4.57  0.  0.  0.
459  4.58  0.  0.  0.
460  4.59  0.  0.  0.
461  4.60  0.  0.  0.
462  4.61  0.  0.  0.
463  4.62  0.  0.  0.
464  4.63  0.  0.  0.
465  4.64  0.  0.  0.
466  4.65  0.  0.  0.
467  4.66  0.  0.  0.
468  4.67  0.  0.  0.
469  4.68  0.  0.  0.
470  4.69  0.  0.  0.
471  4.70  0.  0.  0.
472  4.71  0.  0.  0.
473  4.72  0.  0.  0.
474  4.73  0.  0.  0.
475  4.74  0.  0.  0.
476  4.75  0.  0.  0.
477  4.76  0.  0.  0.
478  4.77  0.  0.  0.
479  4.78  0.  0.  0.
480  4.79  0.  0.  0.
481  4.80  0.  0.  0.
482  4.81  0.  0.  0.
483  4.82  0.  0.  0.
484  4.83  0.  0.  0.
485  4.84  0.  0.  0.
486  4.85  0.  0.  0.
487  4.86  0.  0.  0.
488  4.87  0.  0.  0.
489  4.88  0.  0.  0.
490  4.89  0.  0.  0.
491  4.90  0.  0.  0.
492  4.91  0.  0.  0.
493  4.92  0.  0.  0.
494  4.93  0.  0.  0.
495  4.94  0.  0.  0.
496  4.95  0.  0.  0.
497  4.96  0.  0.  0.
498  4.97  0.  0.  0.
499  4.98  0.  0.  0.
500  4.99  0.  0.  0.
501  5.00  0.  0.  0.
502  5.01  0.  0.  0.
503  5.02  0.  0.  0.
504  5.03  0.  0.  0.
505  5.04  0.  0.  0.
506  5.05  0.  0.  0.
507  5.06  0.  0.  0.
508  5.07  0.  0.  0.
509  5.08  0.  0.  0.
510  5.09  0.  0.  0.
511  5.10  0.  0.  0.
512  5.11  0.  0.  0.
513  5.12  0.  0.  0.
514  5.13  0.  0.  0.
515  5.14  0.  0.  0.
516  5.15  0.  0.  0.
517  5.16  0.  0.  0.
518  5.17  0.  0.  0.
519  5.18  0.  0.  0.
520  5.19  0.  0.  0.
521  5.20  0.  0.  0.
522  5.21  0.  0.  0.
523  5.22  0.  0.  0.
524  5.23  0.  0.  0.
525  5.24  0.  0.  0.
526  5.25  0.  0.  0.
527  5.26  0.  0.  0.
528  5.27  0.  0.  0.
529  5.28  0.  0.  0.
530  5.29  0.  0.  0.
531  5.30  0.  0.  0.
532  5.31  0.  0.  0.
533  5.32  0.  0.  0.
534  5.33  0.  0.  0.
535  5.34  0.  0.  0.
536  5.35  0.  0.  0.
537  5.36  0.  0.  0.
538  5.37  0.  0.  0.
539  5.38  0.  0.  0.
540  5.39  0.  0.  0.
541  5.40  0.  0.  0.
542  5.41  0.  0.  0.
543  5.42  0.  0.  0.
544  5.43  0.  0.  0.
545  5.44  0.  0.  0.
546  5.45  0.  0.  0.
547  5.46  0.  0.  0.
548  5.47  0.  0.  0.
549  5.48  0.  0.  0.
550  5.49  0.  0.  0.
551  5.50  0.  0.  0.
552  5.51  0.  0.  0.
553  5.52  0.  0.  0.
554  5.53  0.  0.  0.
555  5.54  0.  0.  0.
556  5.55  0.  0.  0.
557  5.56  0.  0.  0.
558  5.57  0.  0.  0.
559  5.58  0.  0.  0.
560  5.59  0.  0.  0.
561  5.60  0.  0.  0.
562  5.61  0.  0.  0.
563  5.62  0.  0.  0.
564  5.63  0.  0.  0.
565  5.64  0.  0.  0.
566  5.65  0.  0.  0.
567  5.66  0.  0.  0.
568  5.67  0.  0.  0.
569  5.68  0.  0.  0.
570  5.69  0.  0.  0.
571  5.70  0.  0.  0.
572  5.71  0.  0.  0.
573  5.72  0.  0.  0.
574  5.73  0.  0.  0.
575  5.74  0.  0.  0.
576  5.75  0.  0.  0.
577  5.76  0.  0.  0.
578  5.77  0.  0.  0.
579  5.78  0.  0.  0.
580  5.79  0.  0.  0.
581  5.80  0.  0.  0.
582  5.81  0.  0.  0.
583  5.82  0.  0.  0.
584  5.83  0.  0.  0.
585  5.84  0.  0.  0.
586  5.85  0.  0.  0.
587  5.86  0.  0.  0.
588  5.87  0.  0.  0.
589  5.88  0.  0.  0.
590  5.89  0.  0.  0.
591  5.90  0.  0.  0.
592  5.91  0.  0.  0.
593  5.92  0.  0.  0.
594  5.93  0.  0.  0.
595  5.94  0.  0.  0.
596  5.95  0.  0.  0.
597  5.96  0.  0.  0.
598  5.97  0.  0.  0.
599  5.98  0.  0.  0.
600  5.99  0.  0.  0.
1                         6.8516873498872E+00  7.4326396988689E-01
1  0.0000000000000E+00  2.9656510441844E-09 -1.2218034944889E-08
2  1.0000000000000E-02  1.1940988475656E-03 -1.6106262107771E-03
3  2.0000000000000E-02  4.7688737022036E-03 -6.4174486016843E-03
4  3.0000000000000E-02  1.0701860528404E-02 -1.4345714190921E-02
5  4.0000000000000E-02  1.8955954312587E-02 -2.5272213446925E-02
6  5.0000000000000E-02  2.9479905653266E-02 -3.9027323935364E-02
7  6.0000000000000E-02  4.2209004137771E-02 -5.5397822828888E-02
8  7.0000000000000E-02  5.7065936903780E-02 -7.4130420666601E-02
9  8.0000000000000E-02  7.3961807818271E-02 -9.4935956532230E-02
10  9.0000000000000E-02  9.2797299994564E-02 -1.1749418360999E-01
11  1.0000000000000E-01  1.1346396195687E-01 -1.4145906406323E-01
12  1.1000000000000E-01  1.3584559569390E-01 -1.6646448353384E-01
13  1.2000000000000E-01  1.5981972315420E-01 -1.9213028842543E-01
14  1.3000000000000E-01  1.8525910645636E-01 -2.1806854363207E-01
15  1.4000000000000E-01  2.1203329623904E-01 -2.4388990460136E-01
16  1.5000000000000E-01  2.4001018217462E-01 -2.6920999563995E-01
17  1.6000000000000E-01  2.6905751972345E-01 -2.9365568621748E-01
18  1.7000000000000E-01  2.9904440771244E-01 -3.1687115870471E-01
19  1.8000000000000E-01  3.2984269227436E-01 -3.3852366446823E-01
20  1.9000000000000E-01  3.6132827406620E-01 -3.5830887047933E-01
21  2.0000000000000E-01  3.9338229747243E-01 -3.7595570549387E-01
22  2.1000000000000E-01  4.2589220266235E-01 -3.9123062330790E-01
23  2.2000000000000E-01  4.5875262387109E-01 -4.0394121044993E-01
24  2.3000000000000E-01  4.9186612006946E-01 -4.1393907677146E-01
25  2.4000000000000E-01  5.2514372722887E-01 -4.2112197955531E-01
26  2.5000000000000E-01  5.5850532462198E-01 -4.2543514477452E-01
27  2.6000000000000E-01  5.9187981097040E-01 -4.2687176278186E-01
28  2.7000000000000E-01  6.2520508969907E-01 -4.2547264976411E-01
29  2.8000000000000E-01  6.5842786602190E-01 -4.2132508051585E-01
30  2.9000000000000E-01  6.9150326200398E-01 -4.1456081223651E-01
31  3.0000000000000E-01  7.2439425906166E-01 -4.0535333289000E-01
32  3.1000000000000E-01  7.5707098051387E-01 -3.9391438095359E-01
33  3.2000000000000E-01  7.8950982973043E-01 -3.8048979589563E-01
34  3.3000000000000E-01  8.2169250208236E-01 -3.6535477024494E-01
35  3.4000000000000E-01  8.5360489123864E-01 -3.4880858445165E-01
36  3.5000000000000E-01  8.8523591232897E-01 -3.3116891471094E-01
37  3.6000000000000E-01  9.1657626606905E-01 -3.1276581137193E-01
38  3.7000000000000E-01  9.4761716909116E-01 -2.9393545135438E-01
39  3.8000000000000E-01  9.7834907641990E-01 -2.7501377204351E-01
40  3.9000000000000E-01  1.0087604222629E+00 -2.5633009635461E-01
41  4.0000000000000E-01  1.0388364050465E+00 -2.3820085901366E-01
42  4.1000000000000E-01  1.0685578419177E+00 -2.2092354257753E-01
43  4.2000000000000E-01  1.0979001167644E+00 -2.0477092833922E-01
44  4.3000000000000E-01  1.1268322442011E+00 -1.8998576208451E-01
45  4.4000000000000E-01  1.1553160699471E+00 -1.7677592777167E-01
46  4.5000000000000E-01  1.1833056256232E+00 -1.6531021370960E-01