Dy    ONCVPSP-4.0.1  r_core=   2.00176   1.60430   1.90822   1.50213
66.0000     20.0000      230112    zatom,zion,pspd
8      11   3     4   600     0    pspcod,pspxc,lmax,lloc,mmax,r2well
5.99000000  4.00000000  0.00000000    rchrg fchrg qchrg
2     2     2     2     0    nproj
1     1           extension_switch
0                         6.8112808182772E+00  7.7103787012039E-01
1  0.0000000000000E+00  8.6708917823586E-11 -2.7361186580310E-10
2  1.0000000000000E-02  4.2327337383958E-02 -2.8155917636324E-03
3  2.0000000000000E-02  8.4630521653875E-02 -5.6648389781673E-03
4  3.0000000000000E-02  1.2688521893072E-01 -8.5807904084118E-03
5  4.0000000000000E-02  1.6906673607240E-01 -1.1595288245393E-02
6  5.0000000000000E-02  2.1114984668723E-01 -1.4738381745390E-02
7  6.0000000000000E-02  2.5310862385959E-01 -1.8037760984510E-02
8  7.0000000000000E-02  2.9491628172245E-01 -2.1518217110060E-02
9  8.0000000000000E-02  3.3654502792496E-01 -2.5201135196357E-02
10  9.0000000000000E-02  3.7796592893622E-01 -2.9104025475624E-02
11  1.0000000000000E-01  4.1914879000037E-01 -3.3240098317408E-02
12  1.1000000000000E-01  4.6006205141416E-01 -3.7617887876652E-02
13  1.2000000000000E-01  5.0067270263713E-01 -4.2240928825171E-02
14  1.3000000000000E-01  5.4094621556885E-01 -4.7107490029128E-02
15  1.4000000000000E-01  5.8084649813788E-01 -5.2210368441398E-02
16  1.5000000000000E-01  6.2033586914604E-01 -5.7536745848289E-02
17  1.6000000000000E-01  6.5937505510013E-01 -6.3068110451099E-02
18  1.7000000000000E-01  6.9792320954412E-01 -6.8780244581243E-02
19  1.8000000000000E-01  7.3593795517973E-01 -7.4643279149333E-02
20  1.9000000000000E-01  7.7337544883465E-01 -8.0621814721490E-02
21  2.0000000000000E-01  8.1019046910685E-01 -8.6675108406317E-02
22  2.1000000000000E-01  8.4633652628388E-01 -9.2757325031642E-02
23  2.2000000000000E-01  8.8176599390886E-01 -9.8817850397557E-02
24  2.3000000000000E-01  9.1643026114272E-01 -1.0480166371902E-01
25  2.4000000000000E-01  9.5027990485708E-01 -1.1064976572434E-01
26  2.5000000000000E-01  9.8326488018660E-01 -1.1629965826140E-01
27  2.6000000000000E-01  1.0153347280746E+00 -1.2168587068871E-01
28  2.7000000000000E-01  1.0464387981641E+00 -1.2674052779887E-01
29  2.8000000000000E-01  1.0765264852206E+00 -1.3139395354358E-01
30  2.9000000000000E-01  1.1055474771214E+00 -1.3557530440753E-01
31  3.0000000000000E-01  1.1334520123147E+00 -1.3921322591745E-01
32  3.1000000000000E-01  1.1601911445416E+00 -1.4223652547752E-01
33  3.2000000000000E-01  1.1857170125163E+00 -1.4457485449535E-01
34  3.3000000000000E-01  1.2099831121976E+00 -1.4615939260802E-01
35  3.4000000000000E-01  1.2329445692290E+00 -1.4692352673704E-01
36  3.5000000000000E-01  1.2545584091064E+00 -1.4680351769561E-01
37  3.6000000000000E-01  1.2747838226267E+00 -1.4573914714249E-01
38  3.7000000000000E-01  1.2935824241947E+00 -1.4367433782414E-01
39  3.8000000000000E-01  1.3109185006124E+00 -1.4055774026937E-01
40  3.9000000000000E-01  1.3267592480402E+00 -1.3634327939721E-01
41  4.0000000000000E-01  1.3410749949154E+00 -1.3099065486734E-01
42  4.1000000000000E-01  1.3538394087234E+00 -1.2446578943855E-01
43  4.2000000000000E-01  1.3650296846531E+00 -1.1674122010276E-01
44  4.3000000000000E-01  1.3746267143214E+00 -1.0779642732334E-01
45  4.4000000000000E-01  1.3826152329249E+00 -9.7618098323559E-02
46  4.5000000000000E-01  1.3889839433647E+00 -8.6200321036778E-02
47  4.6000000000000E-01  1.3937256160967E+00 -7.3544706038715E-02
48  4.7000000000000E-01  1.3968371636743E+00 -5.9660434527054E-02
49  4.8000000000000E-01  1.3983196891818E+00 -4.4564231186953E-02
50  4.9000000000000E-01  1.3981785079915E+00 -2.8280261574909E-02
51  5.0000000000000E-01  1.3964231425233E+00 -1.0839954460766E-02
52  5.1000000000000E-01  1.3930672899325E+00  7.7182496214674E-03
53  5.2000000000000E-01  1.3881287629020E+00  2.7349221555459E-02
54  5.3000000000000E-01  1.3816294039644E+00  4.8001535704039E-02
55  5.4000000000000E-01  1.3735949740241E+00  6.9617927223282E-02
56  5.5000000000000E-01  1.3640550159935E+00  9.2135810257706E-02
57  5.6000000000000E-01  1.3530426946849E+00  1.1548785193832E-01
58  5.7000000000000E-01  1.3405946143270E+00  1.3960259644368E-01
59  5.8000000000000E-01  1.3267506152800E+00  1.6440513277614E-01
60  5.9000000000000E-01  1.3115535517217E+00  1.8981779935672E-01
61  6.0000000000000E-01  1.2950490522521E+00  2.1576091806076E-01
62  6.1000000000000E-01  1.2772852655257E+00  2.4215354990705E-01
63  6.2000000000000E-01  1.2583125931586E+00  2.6891426428182E-01
64  6.3000000000000E-01  1.2381834122756E+00  2.9596191332933E-01
65  6.4000000000000E-01  1.2169517901570E+00  3.2321640297764E-01
66  6.5000000000000E-01  1.1946731935152E+00  3.5059945199260E-01
67  6.6000000000000E-01  1.1714041949777E+00  3.7803533046888E-01
68  6.7000000000000E-01  1.1472021793740E+00  4.0545156927303E-01
69  6.8000000000000E-01  1.1221250524178E+00  4.3277963215207E-01
70  6.9000000000000E-01  1.0962309543487E+00  4.5995554250880E-01
71  7.0000000000000E-01  1.0695779810393E+00  4.8692045722178E-01
72  7.1000000000000E-01  1.0422239149954E+00  5.1362118034975E-01
73  7.2000000000000E-01  1.0142259685747E+00  5.4001061010390E-01
74  7.3000000000000E-01  9.8564054162030E-01  5.6604811309111E-01
75  7.4000000000000E-01  9.5652299556024E-01  5.9169982052335E-01
76  7.5000000000000E-01  9.2692744585501E-01  6.1693884184391E-01
77  7.6000000000000E-01  8.9690657449077E-01  6.4174539203566E-01
78  7.7000000000000E-01  8.6651146401235E-01  6.6610682973985E-01
79  7.8000000000000E-01  8.3579145437497E-01  6.9001760421957E-01
80  7.9000000000000E-01  8.0479402366455E-01  7.1347911014051E-01
81  8.0000000000000E-01  7.7356469349859E-01  7.3649945010309E-01
82  8.1000000000000E-01  7.4214695967395E-01  7.5909310583670E-01
83  8.2000000000000E-01  7.1058224837707E-01  7.8128051994770E-01
84  8.3000000000000E-01  6.7890989801919E-01  8.0308759108869E-01
85  8.4000000000000E-01  6.4716716650578E-01  8.2454508637852E-01
86  8.5000000000000E-01  6.1538926349804E-01  8.4568797584062E-01
87  8.6000000000000E-01  5.8360940697811E-01  8.6655469453188E-01
88  8.7000000000000E-01  5.5185890318921E-01  8.8718633889920E-01
89  8.8000000000000E-01  5.2016724879151E-01  9.0762580471395E-01
90  8.9000000000000E-01  4.8856225385338E-01  9.2791687469294E-01
91  9.0000000000000E-01  4.5707018409031E-01  9.4810326460713E-01
92  9.1000000000000E-01  4.2571592056949E-01  9.6822763730284E-01
93  9.2000000000000E-01  3.9452313491943E-01  9.8833059460792E-01
94  9.3000000000000E-01  3.6351447792197E-01  1.0084496575636E+00
95  9.4000000000000E-01  3.3271177921903E-01  1.0286182458066E+00
96  9.5000000000000E-01  3.0213625573984E-01  1.0488646672245E+00
97  9.6000000000000E-01  2.7180872634583E-01  1.0692111292182E+00
98  9.7000000000000E-01  2.4174983010113E-01  1.0896727830235E+00
99  9.8000000000000E-01  2.1198024550551E-01  1.1102568125800E+00
100  9.9000000000000E-01  1.8252090797456E-01  1.1309615793721E+00
101  1.0000000000000E+00  1.5339322281784E-01  1.1517758345282E+00
102  1.0100000000000E+00  1.2461927094992E-01  1.1726780092286E+00
103  1.0200000000000E+00  9.6222004570258E-02  1.1936355941619E+00
104  1.0300000000000E+00  6.8225430065934E-02  1.2146046183723E+00
105  1.0400000000000E+00  4.0654775425377E-02  1.2355292373689E+00
106  1.0500000000000E+00  1.3536639500531E-02  1.2563414398186E+00
107  1.0600000000000E+00 -1.3100879480459E-02  1.2769608815263E+00
108  1.0700000000000E+00 -3.9228078669242E-02  1.2972948547118E+00
109  1.0800000000000E+00 -6.4813571048016E-02  1.3172383998407E+00
110  1.0900000000000E+00 -8.9824233893945E-02  1.3366745664380E+00
111  1.1000000000000E+00 -1.1422518745460E-01  1.3554748284269E+00
112  1.1100000000000E+00 -1.3797980589571E-01  1.3734996585809E+00
113  1.1200000000000E+00 -1.6104976243022E-01  1.3905992656549E+00
114  1.1300000000000E+00 -1.8339511036930E-01  1.4066144966720E+00
115  1.1400000000000E+00 -2.0497440164812E-01  1.4213779056774E+00
116  1.1500000000000E+00 -2.2574484417170E-01  1.4347149890307E+00
117  1.1600000000000E+00 -2.4566249909396E-01  1.4464455859773E+00
118  1.1700000000000E+00 -2.6468251888620E-01  1.4563854418173E+00
119  1.1800000000000E+00 -2.8275942676179E-01  1.4643479294631E+00
120  1.1900000000000E+00 -2.9984743770235E-01  1.4701459235267E+00
121  1.2000000000000E+00 -3.1590082096774E-01  1.4735938193028E+00
122  1.2100000000000E+00 -3.3087430356500E-01  1.4745096870783E+00
123  1.2200000000000E+00 -3.4472351369514E-01  1.4727175501120E+00
124  1.2300000000000E+00 -3.5740546267861E-01  1.4680497723315E+00
125  1.2400000000000E+00 -3.6887906328335E-01  1.4603495393086E+00
126  1.2500000000000E+00 -3.7910568172589E-01  1.4494734133434E+00
127  1.2600000000000E+00 -3.8804971988232E-01  1.4352939404854E+00
128  1.2700000000000E+00 -3.9567922342829E-01  1.4177022840614E+00
129  1.2800000000000E+00 -4.0196651070403E-01  1.3966108556632E+00
130  1.2900000000000E+00 -4.0688881607365E-01  1.3719559106081E+00
131  1.3000000000000E+00 -4.1042894040730E-01  1.3437000705700E+00
132  1.3100000000000E+00 -4.1257590003745E-01  1.3118347313185E+00
133  1.3200000000000E+00 -4.1332556413125E-01  1.2763823083198E+00
134  1.3300000000000E+00 -4.1268126886179E-01  1.2373982672735E+00
135  1.3400000000000E+00 -4.1065439504021E-01  1.1949728804581E+00
136  1.3500000000000E+00 -4.0726489397409E-01  1.1492326429786E+00
137  1.3600000000000E+00 -4.0254174424045E-01  1.1003412756344E+00
138  1.3700000000000E+00 -3.9652331979162E-01  1.0485002331239E+00
139  1.3800000000000E+00 -3.8925764732350E-01  9.9394862756927E-01
140  1.3900000000000E+00 -3.8080252813051E-01  9.3696246789785E-01
141  1.4000000000000E+00 -3.7122549673151E-01  8.7785310539349E-01
142  1.4100000000000E+00 -3.6060358535470E-01  8.1696476464483E-01
143  1.4200000000000E+00 -3.4902285992659E-01  7.5467102721434E-01
144  1.4300000000000E+00 -3.3657768945603E-01  6.9137012239463E-01
145  1.4400000000000E+00 -3.2336970668797E-01  6.2747886558302E-01
146  1.4500000000000E+00 -3.0950641355505E-01  5.6342506984641E-01
147  1.4600000000000E+00 -2.9509938027666E-01  4.9963824016355E-01
148  1.4700000000000E+00 -2.8026198194807E-01  4.3653834262244E-01
149  1.4800000000000E+00 -2.6510660985048E-01  3.7452241554639E-01
150  1.4900000000000E+00 -2.4974129068313E-01  3.1394878069713E-01
151  1.5000000000000E+00 -2.3426569487379E-01  2.5511888299222E-01
152  1.5100000000000E+00 -2.1876645261654E-01  1.9825648805815E-01
153  1.5200000000000E+00 -2.0331906078776E-01  1.4352437293278E-01
154  1.5300000000000E+00 -1.8799528759029E-01  9.1069238492913E-02
155  1.5400000000000E+00 -1.7286453606563E-01  4.1030515262121E-02
156  1.5500000000000E+00 -1.5799336518195E-01 -6.4613999937928E-03
157  1.5600000000000E+00 -1.4344512527832E-01 -5.1286294215443E-02
158  1.5700000000000E+00 -1.2927959781501E-01 -9.3335308476701E-02
159  1.5800000000000E+00 -1.1555265772889E-01 -1.3251203148266E-01
160  1.5900000000000E+00 -1.0231596118243E-01 -1.6873350751995E-01
161  1.6000000000000E+00 -8.9616661766325E-02 -2.0193114815485E-01
162  1.6100000000000E+00 -7.7497158020460E-02 -2.3205153760139E-01
163  1.6200000000000E+00 -6.5994874857961E-02 -2.5905712270009E-01
164  1.6300000000000E+00 -5.5142081195333E-02 -2.8292677942158E-01
165  1.6400000000000E+00 -4.4965745821000E-02 -3.0365624870212E-01
166  1.6500000000000E+00 -3.5487433167658E-02 -3.2125843575261E-01
167  1.6600000000000E+00 -2.6723240308401E-02 -3.3576356818213E-01
168  1.6700000000000E+00 -1.8683776154525E-02 -3.4721920943906E-01
169  1.6800000000000E+00 -1.1374183442421E-02 -3.5569012545819E-01
170  1.6900000000000E+00 -4.7942036948581E-03 -3.6125800382564E-01
171  1.7000000000000E+00  1.0617150232830E-03 -3.6402102601776E-01
172  1.7100000000000E+00  6.2042681373591E-03 -3.6409329469177E-01
173  1.7200000000000E+00  1.0649103379856E-02 -3.6160411948012E-01
174  1.7300000000000E+00  1.4416589734659E-02 -3.5669716590954E-01
175  1.7400000000000E+00  1.7531548261137E-02 -3.4952947353881E-01
176  1.7500000000000E+00  2.0022946889941E-02 -3.4027035057571E-01
177  1.7600000000000E+00  2.1923561644591E-02 -3.2910015351993E-01
178  1.7700000000000E+00  2.3269607056553E-02 -3.1620896146898E-01
179  1.7800000000000E+00  2.4100338834144E-02 -3.0179515574354E-01
180  1.7900000000000E+00  2.4457632143619E-02 -2.8606391655790E-01
181  1.8000000000000E+00  2.4385539083753E-02 -2.6922564922435E-01
182  1.8100000000000E+00  2.3929829143064E-02 -2.5149435310798E-01
183  1.8200000000000E+00  2.3137516625961E-02 -2.3308594725961E-01
184  1.8300000000000E+00  2.2056379162188E-02 -2.1421656709330E-01
185  1.8400000000000E+00  2.0734471505215E-02 -1.9510084678835E-01
186  1.8500000000000E+00  1.9219638936493E-02 -1.7595020252489E-01
187  1.8600000000000E+00  1.7559034355531E-02 -1.5697113064718E-01
188  1.8700000000000E+00  1.5798646167248E-02 -1.3836354521096E-01
189  1.8800000000000E+00  1.3982819051364E-02 -1.2031910222598E-01
190  1.8900000000000E+00  1.2153860353949E-02 -1.0301978517806E-01
191  1.9000000000000E+00  1.0351528077868E-02 -8.6636173399433E-02
192  1.9100000000000E+00  8.6113791109699E-03 -7.1322309526528E-02
193  1.9200000000000E+00  6.9651590082035E-03 -5.7216570049949E-02
194  1.9300000000000E+00  5.4440953840112E-03 -4.4451245364390E-02
195  1.9400000000000E+00  4.0752777026056E-03 -3.3141858713389E-02
196  1.9500000000000E+00  2.8814496883896E-03 -2.3386380634678E-02
197  1.9600000000000E+00  1.8807674075937E-03 -1.5264377220632E-02
198  1.9700000000000E+00  1.0868954529595E-03 -8.8386762641268E-03
199  1.9800000000000E+00  5.0656815089755E-04 -4.1356340602643E-03
200  1.9900000000000E+00  1.4711292523921E-04 -1.2083210747352E-03
201  2.0000000000000E+00  8.0140222530304E-06 -6.6389852029270E-05
202  2.0100000000000E+00 -4.8590786176701E-06  4.0338739956461E-05
203  2.0200000000000E+00  2.2001898436957E-06 -1.8162290705639E-05
204  2.03 -0.  0.
205  2.04 -0. -0.
206  2.05 -0. -0.
207  2.06  0.  0.
208  2.07  0.  0.
209  2.08  0.  0.
210  2.09  0.  0.
211  2.10  0.  0.
212  2.11  0.  0.
213  2.12  0.  0.
214  2.13  0.  0.
215  2.14  0.  0.
216  2.15  0.  0.
217  2.16  0.  0.
218  2.17  0.  0.
219  2.18  0.  0.
220  2.19  0.  0.
221  2.20  0.  0.
222  2.21  0.  0.
223  2.22  0.  0.
224  2.23  0.  0.
225  2.24  0.  0.
226  2.25  0.  0.
227  2.26  0.  0.
228  2.27  0.  0.
229  2.28  0.  0.
230  2.29  0.  0.
231  2.30  0.  0.
232  2.31  0.  0.
233  2.32  0.  0.
234  2.33  0.  0.
235  2.34  0.  0.
236  2.35  0.  0.
237  2.36  0.  0.
238  2.37  0.  0.
239  2.38  0.  0.
240  2.39  0.  0.
241  2.40  0.  0.
242  2.41  0.  0.
243  2.42  0.  0.
244  2.43  0.  0.
245  2.44  0.  0.
246  2.45  0.  0.
247  2.46  0.  0.
248  2.47  0.  0.
249  2.48  0.  0.
250  2.49  0.  0.
251  2.50  0.  0.
252  2.51  0.  0.
253  2.52  0.  0.
254  2.53  0.  0.
255  2.54  0.  0.
256  2.55  0.  0.
257  2.56  0.  0.
258  2.57  0.  0.
259  2.58  0.  0.
260  2.59  0.  0.
261  2.60  0.  0.
262  2.61  0.  0.
263  2.62  0.  0.
264  2.63  0.  0.
265  2.64  0.  0.
266  2.65  0.  0.
267  2.66  0.  0.
268  2.67  0.  0.
269  2.68  0.  0.
270  2.69  0.  0.
271  2.70  0.  0.
272  2.71  0.  0.
273  2.72  0.  0.
274  2.73  0.  0.
275  2.74  0.  0.
276  2.75  0.  0.
277  2.76  0.  0.
278  2.77  0.  0.
279  2.78  0.  0.
280  2.79  0.  0.
281  2.80  0.  0.
282  2.81  0.  0.
283  2.82  0.  0.
284  2.83  0.  0.
285  2.84  0.  0.
286  2.85  0.  0.
287  2.86  0.  0.
288  2.87  0.  0.
289  2.88  0.  0.
290  2.89  0.  0.
291  2.90  0.  0.
292  2.91  0.  0.
293  2.92  0.  0.
294  2.93  0.  0.
295  2.94  0.  0.
296  2.95  0.  0.
297  2.96  0.  0.
298  2.97  0.  0.
299  2.98  0.  0.
300  2.99  0.  0.
301  3.00  0.  0.
302  3.01  0.  0.
303  3.02  0.  0.
304  3.03  0.  0.
305  3.04  0.  0.
306  3.05  0.  0.
307  3.06  0.  0.
308  3.07  0.  0.
309  3.08  0.  0.
310  3.09  0.  0.
311  3.10  0.  0.
312  3.11  0.  0.
313  3.12  0.  0.
314  3.13  0.  0.
315  3.14  0.  0.
316  3.15  0.  0.
317  3.16  0.  0.
318  3.17  0.  0.
319  3.18  0.  0.
320  3.19  0.  0.
321  3.20  0.  0.
322  3.21  0.  0.
323  3.22  0.  0.
324  3.23  0.  0.
325  3.24  0.  0.
326  3.25  0.  0.
327  3.26  0.  0.
328  3.27  0.  0.
329  3.28  0.  0.
330  3.29  0.  0.
331  3.30  0.  0.
332  3.31  0.  0.
333  3.32  0.  0.
334  3.33  0.  0.
335  3.34  0.  0.
336  3.35  0.  0.
337  3.36  0.  0.
338  3.37  0.  0.
339  3.38  0.  0.
340  3.39  0.  0.
341  3.40  0.  0.
342  3.41  0.  0.
343  3.42  0.  0.
344  3.43  0.  0.
345  3.44  0.  0.
346  3.45  0.  0.
347  3.46  0.  0.
348  3.47  0.  0.
349  3.48  0.  0.
350  3.49  0.  0.
351  3.50  0.  0.
352  3.51  0.  0.
353  3.52  0.  0.
354  3.53  0.  0.
355  3.54  0.  0.
356  3.55  0.  0.
357  3.56  0.  0.
358  3.57  0.  0.
359  3.58  0.  0.
360  3.59  0.  0.
361  3.60  0.  0.
362  3.61  0.  0.
363  3.62  0.  0.
364  3.63  0.  0.
365  3.64  0.  0.
366  3.65  0.  0.
367  3.66  0.  0.
368  3.67  0.  0.
369  3.68  0.  0.
370  3.69  0.  0.
371  3.70  0.  0.
372  3.71  0.  0.
373  3.72  0.  0.
374  3.73  0.  0.
375  3.74  0.  0.
376  3.75  0.  0.
377  3.76  0.  0.
378  3.77  0.  0.
379  3.78  0.  0.
380  3.79  0.  0.
381  3.80  0.  0.
382  3.81  0.  0.
383  3.82  0.  0.
384  3.83  0.  0.
385  3.84  0.  0.
386  3.85  0.  0.
387  3.86  0.  0.
388  3.87  0.  0.
389  3.88  0.  0.
390  3.89  0.  0.
391  3.90  0.  0.
392  3.91  0.  0.
393  3.92  0.  0.
394  3.93  0.  0.
395  3.94  0.  0.
396  3.95  0.  0.
397  3.96  0.  0.
398  3.97  0.  0.
399  3.98  0.  0.
400  3.99  0.  0.
401  4.00  0.  0.
402  4.01  0.  0.
403  4.02  0.  0.
404  4.03  0.  0.
405  4.04  0.  0.
406  4.05  0.  0.
407  4.06  0.  0.
408  4.07  0.  0.
409  4.08  0.  0.
410  4.09  0.  0.
411  4.10  0.  0.
412  4.11  0.  0.
413  4.12  0.  0.
414  4.13  0.  0.
415  4.14  0.  0.
416  4.15  0.  0.
417  4.16  0.  0.
418  4.17  0.  0.
419  4.18  0.  0.
420  4.19  0.  0.
421  4.20  0.  0.
422  4.21  0.  0.
423  4.22  0.  0.
424  4.23  0.  0.
425  4.24  0.  0.
426  4.25  0.  0.
427  4.26  0.  0.
428  4.27  0.  0.
429  4.28  0.  0.
430  4.29  0.  0.
431  4.30  0.  0.
432  4.31  0.  0.
433  4.32  0.  0.
434  4.33  0.  0.
435  4.34  0.  0.
436  4.35  0.  0.
437  4.36  0.  0.
438  4.37  0.  0.
439  4.38  0.  0.
440  4.39  0.  0.
441  4.40  0.  0.
442  4.41  0.  0.
443  4.42  0.  0.
444  4.43  0.  0.
445  4.44  0.  0.
446  4.45  0.  0.
447  4.46  0.  0.
448  4.47  0.  0.
449  4.48  0.  0.
450  4.49  0.  0.
451  4.50  0.  0.
452  4.51  0.  0.
453  4.52  0.  0.
454  4.53  0.  0.
455  4.54  0.  0.
456  4.55  0.  0.
457  4.56  0.  0.
458  4.57  0.  0.
459  4.58  0.  0.
460  4.59  0.  0.
461  4.60  0.  0.
462  4.61  0.  0.
463  4.62  0.  0.
464  4.63  0.  0.
465  4.64  0.  0.
466  4.65  0.  0.
467  4.66  0.  0.
468  4.67  0.  0.
469  4.68  0.  0.
470  4.69  0.  0.
471  4.70  0.  0.
472  4.71  0.  0.
473  4.72  0.  0.
474  4.73  0.  0.
475  4.74  0.  0.
476  4.75  0.  0.
477  4.76  0.  0.
478  4.77  0.  0.
479  4.78  0.  0.
480  4.79  0.  0.
481  4.80  0.  0.
482  4.81  0.  0.
483  4.82  0.  0.
484  4.83  0.  0.
485  4.84  0.  0.
486  4.85  0.  0.
487  4.86  0.  0.
488  4.87  0.  0.
489  4.88  0.  0.
490  4.89  0.  0.
491  4.90  0.  0.
492  4.91  0.  0.
493  4.92  0.  0.
494  4.93  0.  0.
495  4.94  0.  0.
496  4.95  0.  0.
497  4.96  0.  0.
498  4.97  0.  0.
499  4.98  0.  0.
500  4.99  0.  0.
501  5.00  0.  0.
502  5.01  0.  0.
503  5.02  0.  0.
504  5.03  0.  0.
505  5.04  0.  0.
506  5.05  0.  0.
507  5.06  0.  0.
508  5.07  0.  0.
509  5.08  0.  0.
510  5.09  0.  0.
511  5.10  0.  0.
512  5.11  0.  0.
513  5.12  0.  0.
514  5.13  0.  0.
515  5.14  0.  0.
516  5.15  0.  0.
517  5.16  0.  0.
518  5.17  0.  0.
519  5.18  0.  0.
520  5.19  0.  0.
521  5.20  0.  0.
522  5.21  0.  0.
523  5.22  0.  0.
524  5.23  0.  0.
525  5.24  0.  0.
526  5.25  0.  0.
527  5.26  0.  0.
528  5.27  0.  0.
529  5.28  0.  0.
530  5.29  0.  0.
531  5.30  0.  0.
532  5.31  0.  0.
533  5.32  0.  0.
534  5.33  0.  0.
535  5.34  0.  0.
536  5.35  0.  0.
537  5.36  0.  0.
538  5.37  0.  0.
539  5.38  0.  0.
540  5.39  0.  0.
541  5.40  0.  0.
542  5.41  0.  0.
543  5.42  0.  0.
544  5.43  0.  0.
545  5.44  0.  0.
546  5.45  0.  0.
547  5.46  0.  0.
548  5.47  0.  0.
549  5.48  0.  0.
550  5.49  0.  0.
551  5.50  0.  0.
552  5.51  0.  0.
553  5.52  0.  0.
554  5.53  0.  0.
555  5.54  0.  0.
556  5.55  0.  0.
557  5.56  0.  0.
558  5.57  0.  0.
559  5.58  0.  0.
560  5.59  0.  0.
561  5.60  0.  0.
562  5.61  0.  0.
563  5.62  0.  0.
564  5.63  0.  0.
565  5.64  0.  0.
566  5.65  0.  0.
567  5.66  0.  0.
568  5.67  0.  0.
569  5.68  0.  0.
570  5.69  0.  0.
571  5.70  0.  0.
572  5.71  0.  0.
573  5.72  0.  0.
574  5.73  0.  0.
575  5.74  0.  0.
576  5.75  0.  0.
577  5.76  0.  0.
578  5.77  0.  0.
579  5.78  0.  0.
580  5.79  0.  0.
581  5.80  0.  0.
582  5.81  0.  0.
583  5.82  0.  0.
584  5.83  0.  0.
585  5.84  0.  0.
586  5.85  0.  0.
587  5.86  0.  0.
588  5.87  0.  0.
589  5.88  0.  0.
590  5.89  0.  0.
591  5.90  0.  0.
592  5.91  0.  0.
593  5.92  0.  0.
594  5.93  0.  0.
595  5.94  0.  0.
596  5.95  0.  0.
597  5.96  0.  0.
598  5.97  0.  0.
599  5.98  0.  0.
600  5.99  0.  0.
1                         5.6914489917289E+00  3.6905236043361E-01
1  0.0000000000000E+00  3.3426910545087E-09 -2.1372788844287E-08
2  1.0000000000000E-02  1.2997970489869E-03 -2.4816630189632E-03
3  2.0000000000000E-02  5.1905586914700E-03 -9.8836477216015E-03
4  3.0000000000000E-02  1.1646511606545E-02 -2.2077669113238E-02
5  4.0000000000000E-02  2.0625082299767E-02 -3.8852333450409E-02
6  5.0000000000000E-02  3.2067463425966E-02 -5.9916717226109E-02
7  6.0000000000000E-02  4.5899393286195E-02 -8.4905292720823E-02
8  7.0000000000000E-02  6.2032135422890E-02 -1.1338411681361E-01
9  8.0000000000000E-02  8.0363641894586E-02 -1.4485817837471E-01
10  9.0000000000000E-02  1.0077988075434E-01 -1.7877977995341E-01
11  1.0000000000000E-01  1.2315630553743E-01 -2.1455781196294E-01
12  1.1000000000000E-01  1.4735944223113E-01 -2.5156776244329E-01
13  1.2000000000000E-01  1.7324856729349E-01 -2.8916229300931E-01
14  1.3000000000000E-01  2.0067744884092E-01 -3.2668220197434E-01
15  1.4000000000000E-01  2.2949612216313E-01 -3.6346758904280E-01
16  1.5000000000000E-01  2.5955267026286E-01 -3.9886903250000E-01
17  1.6000000000000E-01  2.9069498016707E-01 -4.3225858955238E-01
18  1.7000000000000E-01  3.2277244631325E-01 -4.6304043339261E-01
19  1.8000000000000E-01  3.5563759337020E-01 -4.9066094663151E-01
20  1.9000000000000E-01  3.8914759238854E-01 -5.1461809985303E-01
21  2.0000000000000E-01  4.2316564616482E-01 -5.3446995605325E-01
22  2.1000000000000E-01  4.5756222211050E-01 -5.4984215642141E-01
23  2.2000000000000E-01  4.9221611369998E-01 -5.6043426006022E-01
24  2.3000000000000E-01  5.2701531468269E-01 -5.6602482953661E-01
25  2.4000000000000E-01  5.6185769362744E-01 -5.6647517527851E-01
26  2.5000000000000E-01  5.9665145996426E-01 -5.6173169443093E-01
27  2.6000000000000E-01  6.3131541643603E-01 -5.5182676347555E-01
28  2.7000000000000E-01  6.6577899670463E-01 -5.3687816830316E-01
29  2.8000000000000E-01  6.9998209070504E-01 -5.1708708009531E-01
30  2.9000000000000E-01  7.3387466414054E-01 -4.9273460990644E-01
31  3.0000000000000E-01  7.6741618219356E-01 -4.6417699882385E-01
32  3.1000000000000E-01  8.0057485102710E-01 -4.3183952361896E-01
33  3.2000000000000E-01  8.3332669390802E-01 -3.9620921949766E-01
34  3.3000000000000E-01  8.6565448173888E-01 -3.5782654154586E-01
35  3.4000000000000E-01  8.9754654038712E-01 -3.1727610441142E-01
36  3.5000000000000E-01  9.2899545940308E-01 -2.7517665536081E-01
37  3.6000000000000E-01  9.5999672848299E-01 -2.3217044883840E-01
38  3.7000000000000E-01  9.9054732932707E-01 -1.8891220081497E-01
39  3.8000000000000E-01  1.0206443113446E+00 -1.4605780837292E-01
40  3.9000000000000E-01  1.0502833799515E+00 -1.0425302401498E-01
41  4.0000000000000E-01  1.0794575259864E+00 -6.4122275035425E-02
42  4.1000000000000E-01  1.1081557240414E+00 -2.6257815943730E-02
43  4.2000000000000E-01  1.1363617262789E+00  8.7906035801363E-03
44  4.3000000000000E-01  1.1640529765986E+00  4.0525381295504E-02
45  4.4000000000000E-01  1.1911996678741E+00  6.8509853170581E-02
46  4.5000000000000E-01  1.2177639624151E+00  9.2376084128460E-02
47  4.6000000000000E-01  1.2436993928906E+00  1.1183152729202E-01
48  4.7000000000000E-01  1.2689504577091E+00  1.2666443915543E-01
49  4.8000000000000E-01  1.2934524213613E+00  1.3674795889423E-01
50  4.9000000000000E-01  1.3171313265410E+00  1.4204278233604E-01
51  5.0000000000000E-01  1.3399042210405E+00  1.4259838457237E-01
52  5.1000000000000E-01  1.3616795985397E+00  1.3855276940096E-01
53  5.2000000000000E-01  1.3823580485287E+00  1.3013074833701E-01
54  5.3000000000000E-01  1.4018331068037E+00  1.1764077640699E-01
55  5.4000000000000E-01  1.4199922943195E+00  1.0147039592465E-01
56  5.5000000000000E-01  1.4367183287228E+00  8.2080362543131E-02
57  5.6000000000000E-01  1.4518904897094E+00  5.9997549688072E-02
58  5.7000000000000E-01  1.4653861164827E+00  3.5806747639924E-02
59  5.8000000000000E-01  1.4770822131056E+00  1.0141491710134E-02
60  5.9000000000000E-01  1.4868571354667E+00 -1.6325930157628E-02
61  6.0000000000000E-01  1.4945923319708E+00 -4.2895126697863E-02
62  6.1000000000000E-01  1.5001741089337E+00 -6.8848735322147E-02
63  6.2000000000000E-01  1.5034953910365E+00 -9.3463854970804E-02
64  6.3000000000000E-01  1.5044574470880E+00 -1.1602359343338E-01
65  6.4000000000000E-01  1.5029715517520E+00 -1.3582854134254E-01
66  6.5000000000000E-01  1.4989605548169E+00 -1.5220798678215E-01
67  6.6000000000000E-01  1.4923603309994E+00 -1.6453068929629E-01
68  6.7000000000000E-01  1.4831210851611E+00 -1.7221503995033E-01
69  6.8000000000000E-01  1.4712084901328E+00 -1.7473844482839E-01
70  6.9000000000000E-01  1.4566046370646E+00 -1.7164578276848E-01
71  7.0000000000000E-01  1.4393087812761E+00 -1.6255680398983E-01
72  7.1000000000000E-01  1.4193378699449E+00 -1.4717235428479E-01
73  7.2000000000000E-01  1.3967268415568E+00 -1.2527932930719E-01
74  7.3000000000000E-01  1.3715286908074E+00 -9.6754284850674E-02
75  7.4000000000000E-01  1.3438142965072E+00 -6.1565651498023E-02
76  7.5000000000000E-01  1.3136720139474E+00 -1.9774525249704E-02
77  7.6000000000000E-01  1.2812070370514E+00  2.8465970691276E-02
78  7.7000000000000E-01  1.2465405394097E+00  8.2912734296618E-02
79  7.8000000000000E-01  1.2098086068989E+00  1.4323610152933E-01
80  7.9000000000000E-01  1.1711609779616E+00  2.0902456768863E-01
81  8.0000000000000E-01  1.1307596107169E+00  2.7979072840916E-01
82  8.1000000000000E-01  1.0887770988165E+00  3.5497833605553E-01
83  8.2000000000000E-01  1.0453949603296E+00  4.3397034976203E-01
84  8.3000000000000E-01  1.0008018258745E+00  5.1609784205759E-01
85  8.4000000000000E-01  9.5519155369734E-01  6.0064961213325E-01
86  8.5000000000000E-01  9.0876130039478E-01  6.8688234555407E-01
87  8.6000000000000E-01  8.6170957648223E-01  7.7403115274327E-01
88  8.7000000000000E-01  8.1423431600845E-01  8.6132031398269E-01
89  8.8000000000000E-01  7.6653098892137E-01  9.4797405702674E-01
90  8.9000000000000E-01  7.1879078390465E-01  1.0332271947293E+00
91  9.0000000000000E-01  6.7119888795573E-01  1.1163354542760E+00
92  9.1000000000000E-01  6.2393288708955E-01  1.1965853366092E+00
93  9.2000000000000E-01  5.7716131026543E-01  1.2733033542742E+00
94  9.3000000000000E-01  5.3104233599197E-01  1.3458645080230E+00
95  9.4000000000000E-01  4.8572267811330E-01  1.4136998768458E+00
96  9.5000000000000E-01  4.4133666407747E-01  1.4763032123987E+00
97  9.6000000000000E-01  3.9800551558899E-01  1.5332364467600E+00
98  9.7000000000000E-01  3.5583683801582E-01  1.5841340417545E+00
99  9.8000000000000E-01  3.1492432132003E-01  1.6287061283880E+00
100  9.9000000000000E-01  2.7534765167170E-01  1.6667404058869E+00
101  1.0000000000000E+00  2.3717262935373E-01  1.6981027910648E+00
102  1.0100000000000E+00  2.0045148512816E-01  1.7227368298980E+00
103  1.0200000000000E+00  1.6522338397361E-01  1.7406619039124E+00
104  1.0300000000000E+00  1.3151510207279E-01  1.7519702839152E+00
105  1.0400000000000E+00  9.9341860172577E-02  1.7568231024690E+00
106  1.0500000000000E+00  6.8708294008754E-02  1.7554453339405E+00
107  1.0600000000000E+00  3.9609540414189E-02  1.7481198867229E+00
108  1.0700000000000E+00  1.2032416043045E-02  1.7351809261168E+00
109  1.0800000000000E+00 -1.4043335626793E-02  1.7170065580847E+00
110  1.0900000000000E+00 -3.8643754198727E-02  1.6940110135874E+00
111  1.1000000000000E+00 -6.1799354765441E-02  1.6666364802791E+00
112  1.1100000000000E+00 -8.3543828393978E-02  1.6353447329361E+00
113  1.1200000000000E+00 -1.0391277581063E-01  1.6006087160654E+00
114  1.1300000000000E+00 -1.2294249854937E-01  1.5629042316907E+00
115  1.1400000000000E+00 -1.4066887056974E-01  1.5227018823643E+00
116  1.1500000000000E+00 -1.5712631173836E-01  1.4804594141245E+00
117  1.1600000000000E+00 -1.7234688260952E-01  1.4366145964310E+00
118  1.1700000000000E+00 -1.8635951769990E-01  1.3915787663261E+00
119  1.1800000000000E+00 -1.9918941193803E-01  1.3457311521965E+00
120  1.1900000000000E+00 -2.1085757225027E-01  1.2994140788837E+00
121  1.2000000000000E+00 -2.2138054334340E-01  1.2529291405892E+00
122  1.2100000000000E+00 -2.3077031370661E-01  1.2065344112770E+00
123  1.2200000000000E+00 -2.3903440474085E-01  1.1604427444025E+00
124  1.2300000000000E+00 -2.4617614272882E-01  1.1148211947538E+00
125  1.2400000000000E+00 -2.5219511017632E-01  1.0697915755093E+00
126  1.2500000000000E+00 -2.5708776986467E-01  1.0254321431752E+00
127  1.2600000000000E+00 -2.6084825180809E-01  9.8178038217755E-01
128  1.2700000000000E+00 -2.6346929024072E-01  9.3883683978740E-01
129  1.2800000000000E+00 -2.6494329474119E-01  8.9656994058916E-01
130  1.2900000000000E+00 -2.6526353668621E-01  8.5492168822499E-01
131  1.3000000000000E+00 -2.6442542939833E-01  8.1381414065178E-01
132  1.3100000000000E+00 -2.6242787758673E-01  7.7315652346592E-01
133  1.3200000000000E+00 -2.5927466899387E-01  7.3285282422008E-01
134  1.3300000000000E+00 -2.5497587851504E-01  6.9280968889584E-01