Gd    ONCVPSP-4.0.1  r_core=   1.80976   1.50343   1.65444   1.80976
64.0000     18.0000      221106    zatom,zion,pspd
8      11   3     4   600     0    pspcod,pspxc,lmax,lloc,mmax,r2well
5.99000000  0.25000000  0.00000000    rchrg fchrg qchrg
2     2     2     2     0    nproj
1     1           extension_switch
0                         8.6759732710580E+00  5.1449003343450E-01
1  0.0000000000000E+00  1.8011669933315E-10 -8.8826841021517E-10
2  1.0000000000000E-02  4.1499229524527E-02 -5.3161854004932E-03
3  2.0000000000000E-02  8.2985107715316E-02 -1.0700403121613E-02
4  3.0000000000000E-02  1.2444397877187E-01 -1.6219394352362E-02
5  4.0000000000000E-02  1.6586158190157E-01 -2.1937335629500E-02
6  5.0000000000000E-02  2.0722275863060E-01 -2.7914600309736E-02
7  6.0000000000000E-02  2.4851117175407E-01 -3.4206571960913E-02
8  7.0000000000000E-02  2.8970903959093E-01 -4.0862525922284E-02
9  8.0000000000000E-02  3.3079688902945E-01 -4.7924594395718E-02
10  9.0000000000000E-02  3.7175333062774E-01 -5.5426829340673E-02
11  1.0000000000000E-01  4.1255485877453E-01 -6.3394376169628E-02
12  1.1000000000000E-01  4.5317567962047E-01 -7.1842769793764E-02
13  1.2000000000000E-01  4.9358756916383E-01 -8.0777362968947E-02
14  1.3000000000000E-01  5.3375976352005E-01 -9.0192895160358E-02
15  1.4000000000000E-01  5.7365888302629E-01 -1.0007320830183E-01
16  1.5000000000000E-01  6.1324889143507E-01 -1.1039111389724E-01
17  1.6000000000000E-01  6.5249109103903E-01 -1.2110841391986E-01
18  1.7000000000000E-01  6.9134415414758E-01 -1.3217607593799E-01
19  1.8000000000000E-01  7.2976419091011E-01 -1.4353456085645E-01
20  1.9000000000000E-01  7.6770485305530E-01 -1.5511429964060E-01
21  2.0000000000000E-01  8.0511747269572E-01 -1.6683631340795E-01
22  2.1000000000000E-01  8.4195123493794E-01 -1.7861296935841E-01
23  2.2000000000000E-01  8.7815338264448E-01 -1.9034886319254E-01
24  2.3000000000000E-01  9.1366945131994E-01 -2.0194181696104E-01
25  2.4000000000000E-01  9.4844353174483E-01 -2.1328397972206E-01
26  2.5000000000000E-01  9.8241855766001E-01 -2.2426301697472E-01
27  2.6000000000000E-01  1.0155366155170E+00 -2.3476337360809E-01
28  2.7000000000000E-01  1.0477392730571E+00 -2.4466759407018E-01
29  2.8000000000000E-01  1.0789679232705E+00 -2.5385768263631E-01
30  2.9000000000000E-01  1.1091641401129E+00 -2.6221648605173E-01
31  3.0000000000000E-01  1.1382700422317E+00 -2.6962908044936E-01
32  3.1000000000000E-01  1.1662286608695E+00 -2.7598414430399E-01
33  3.2000000000000E-01  1.1929843080743E+00 -2.8117529928504E-01
34  3.3000000000000E-01  1.2184829413576E+00 -2.8510240120896E-01
35  3.4000000000000E-01  1.2426725209932E+00 -2.8767276386626E-01
36  3.5000000000000E-01  1.2655033562530E+00 -2.8880229930311E-01
37  3.6000000000000E-01  1.2869284370166E+00 -2.8841655916102E-01
38  3.7000000000000E-01  1.3069037473811E+00 -2.8645166291108E-01
39  3.8000000000000E-01  1.3253885581203E+00 -2.8285510024482E-01
40  3.9000000000000E-01  1.3423456951054E+00 -2.7758639648539E-01
41  4.0000000000000E-01  1.3577417810957E+00 -2.7061763163984E-01
42  4.1000000000000E-01  1.3715474486318E+00 -2.6193380560532E-01
43  4.2000000000000E-01  1.3837375221138E+00 -2.5153304404168E-01
44  4.3000000000000E-01  1.3942911675185E+00 -2.3942664150947E-01
45  4.4000000000000E-01  1.4031920085976E+00 -2.2563894061354E-01
46  4.5000000000000E-01  1.4104282087946E+00 -2.1020704806513E-01
47  4.6000000000000E-01  1.4159925185247E+00 -1.9318039074756E-01
48  4.7000000000000E-01  1.4198822878670E+00 -1.7462011701569E-01
49  4.8000000000000E-01  1.4220994451160E+00 -1.5459835054799E-01
50  4.9000000000000E-01  1.4226504420343E+00 -1.3319730607440E-01
51  5.0000000000000E-01  1.4215461670234E+00 -1.1050827819578E-01
52  5.1000000000000E-01  1.4188018277857E+00 -8.6630516265818E-02
53  5.2000000000000E-01  1.4144368053860E+00 -6.1669999900160E-02
54  5.3000000000000E-01  1.4084744819262E+00 -3.5738131087302E-02
55  5.4000000000000E-01  1.4009420443180E+00 -8.9503600803681E-03
56  5.5000000000000E-01  1.3918702668788E+00  1.8575236766389E-02
57  5.6000000000000E-01  1.3812932756752E+00  4.6719408304818E-02
58  5.7000000000000E-01  1.3692482976953E+00  7.5363189633057E-02
59  5.8000000000000E-01  1.3557753980507E+00  1.0438935321322E-01
60  5.9000000000000E-01  1.3409172084773E+00  1.3368383042939E-01
61  6.0000000000000E-01  1.3247186504354E+00  1.6313708422779E-01
62  6.1000000000000E-01  1.3072266560910E+00  1.9264541402200E-01
63  6.2000000000000E-01  1.2884898903973E+00  2.2211217484107E-01
64  6.3000000000000E-01  1.2685584773957E+00  2.5144889373914E-01
65  6.4000000000000E-01  1.2474837337071E+00  2.8057626775943E-01
66  6.5000000000000E-01  1.2253179120008E+00  3.0942502923655E-01
67  6.6000000000000E-01  1.2021139570115E+00  3.3793666590971E-01
68  6.7000000000000E-01  1.1779252764192E+00  3.6606398518667E-01
69  6.8000000000000E-01  1.1528055286288E+00  3.9377151391392E-01
70  6.9000000000000E-01  1.1268084291818E+00  4.2103572715325E-01
71  7.0000000000000E-01  1.0999875772063E+00  4.4784510170293E-01
72  7.1000000000000E-01  1.0723963029758E+00  4.7419999240892E-01
73  7.2000000000000E-01  1.0440875372966E+00  5.0011233165148E-01
74  7.3000000000000E-01  1.0151137030939E+00  5.2560515473878E-01
75  7.4000000000000E-01  9.8552662921285E-01  5.5071195625404E-01
76  7.5000000000000E-01  9.5537748611008E-01  5.7547588465882E-01
77  7.6000000000000E-01  9.2471674277490E-01  5.9994878461960E-01
78  7.7000000000000E-01  8.9359414390538E-01  6.2419009856681E-01
79  7.8000000000000E-01  8.6205870606894E-01  6.4826564089027E-01
80  7.9000000000000E-01  8.3015873130841E-01  6.7224625989100E-01
81  8.0000000000000E-01  7.9794183641483E-01  6.9620640412983E-01
82  8.1000000000000E-01  7.6545499588223E-01  7.2022261111060E-01
83  8.2000000000000E-01  7.3274459638917E-01  7.4437193729867E-01
84  8.3000000000000E-01  6.9985650051999E-01  7.6873034928465E-01
85  8.4000000000000E-01  6.6683611734651E-01  7.9337109645331E-01
86  8.5000000000000E-01  6.3372847743971E-01  8.1836308579917E-01
87  8.6000000000000E-01  6.0057830987093E-01  8.4376927954132E-01
88  8.7000000000000E-01  5.6743011879259E-01  8.6964513593644E-01
89  8.8000000000000E-01  5.3432825725866E-01  8.9603711316994E-01
90  8.9000000000000E-01  5.0131699605255E-01  9.2298125543929E-01
91  9.0000000000000E-01  4.6844058543341E-01  9.5050187933707E-01
92  9.1000000000000E-01  4.3574330788587E-01  9.7861037741876E-01
93  9.2000000000000E-01  4.0326952016166E-01  1.0073041544184E+00
94  9.3000000000000E-01  3.7106368312785E-01  1.0365657099803E+00
95  9.4000000000000E-01  3.3917037818235E-01  1.0663618800354E+00
96  9.5000000000000E-01  3.0763430925716E-01  1.0966432470921E+00
97  9.6000000000000E-01  2.7650028969766E-01  1.1273437277705E+00
98  9.7000000000000E-01  2.4581321357805E-01  1.1583803439105E+00
99  9.8000000000000E-01  2.1561801128109E-01  1.1896531815703E+00
100  9.9000000000000E-01  1.8595958943067E-01  1.2210455402259E+00
101  1.0000000000000E+00  1.5688275551184E-01  1.2524242725232E+00
102  1.0100000000000E+00  1.2843212774053E-01  1.2836403130511E+00
103  1.0200000000000E+00  1.0065203094766E-01  1.3145293928245E+00
104  1.0300000000000E+00  7.3586379418133E-02  1.3449129345168E+00
105  1.0400000000000E+00  4.7278547767077E-02  1.3745991219884E+00
106  1.0500000000000E+00  2.1771231043510E-02  1.4033841363365E+00
107  1.0600000000000E+00 -2.8937046786382E-03  1.4310535495609E+00
108  1.0700000000000E+00 -2.6675379931554E-02  1.4573838660072E+00
109  1.0800000000000E+00 -4.9534066424809E-02  1.4821442010228E+00
110  1.0900000000000E+00 -7.1431357322933E-02  1.5050980857383E+00
111  1.1000000000000E+00 -9.2330342080710E-02  1.5260053865628E+00
112  1.1100000000000E+00 -1.1219578480779E-01  1.5446243278455E+00
113  1.1200000000000E+00 -1.3099430528542E-01  1.5607136061862E+00
114  1.1300000000000E+00 -1.4869456193536E-01  1.5740345850530E+00
115  1.1400000000000E+00 -1.6526743623820E-01  1.5843535586545E+00
116  1.1500000000000E+00 -1.8068621830872E-01  1.5914440743781E+00
117  1.1600000000000E+00 -1.9492679355020E-01  1.5950893035040E+00
118  1.1700000000000E+00 -2.0796783051995E-01  1.5950844502891E+00
119  1.1800000000000E+00 -2.1979097033270E-01  1.5912391898261E+00
120  1.1900000000000E+00 -2.3038101809791E-01  1.5833801252716E+00
121  1.2000000000000E+00 -2.3972613701645E-01  1.5713532550269E+00
122  1.2100000000000E+00 -2.4781804584199E-01  1.5550264401868E+00
123  1.2200000000000E+00 -2.5465222042654E-01  1.5342918619701E+00
124  1.2300000000000E+00 -2.6022810000532E-01  1.5090684578321E+00
125  1.2400000000000E+00 -2.6454929871758E-01  1.4793043234576E+00
126  1.2500000000000E+00 -2.6762382259484E-01  1.4449790657655E+00
127  1.2600000000000E+00 -2.6946429185511E-01  1.4061060893210E+00
128  1.2700000000000E+00 -2.7008816781255E-01  1.3627347950907E+00
129  1.2800000000000E+00 -2.6951798302544E-01  1.3149526661822E+00
130  1.2900000000000E+00 -2.6778157244430E-01  1.2628872099820E+00
131  1.3000000000000E+00 -2.6491230227619E-01  1.2067077198931E+00
132  1.3100000000000E+00 -2.6094929202980E-01  1.1466268125577E+00
133  1.3200000000000E+00 -2.5593762372810E-01  1.0829016879144E+00
134  1.3300000000000E+00 -2.4992853056206E-01  1.0158350496309E+00
135  1.3400000000000E+00 -2.4297955529877E-01  9.4577561231507E-01
136  1.3500000000000E+00 -2.3515466650520E-01  8.7311810917221E-01
137  1.3600000000000E+00 -2.2652431812697E-01  7.9830269957838E-01
138  1.3700000000000E+00 -2.1716543511579E-01  7.2181366006681E-01
139  1.3800000000000E+00 -2.0716130465386E-01  6.4417722460928E-01
140  1.3900000000000E+00 -1.9660134899673E-01  5.6595842035542E-01
141  1.4000000000000E+00 -1.8558075210612E-01  4.8775672349075E-01
142  1.4100000000000E+00 -1.7419990798785E-01  4.1020033611667E-01
143  1.4200000000000E+00 -1.6256365400886E-01  3.3393885916007E-01
144  1.4300000000000E+00 -1.5078024740181E-01  2.5963410805240E-01
145  1.4400000000000E+00 -1.3896003764511E-01  1.8794878710694E-01
146  1.4500000000000E+00 -1.2721378144687E-01  1.1953270524302E-01
147  1.4600000000000E+00 -1.1565054060042E-01  5.5006179607029E-02
148  1.4700000000000E+00 -1.0437509600289E-01 -5.0597653703622E-03
149  1.4800000000000E+00 -9.3484802343537E-02 -6.0166848823167E-02
150  1.4900000000000E+00 -8.3065799867927E-02 -1.0991712265475E-01
151  1.5000000000000E+00 -7.3188577384158E-02 -1.5404452468836E-01
152  1.5100000000000E+00 -6.3902490196227E-02 -1.9245343326671E-01
153  1.5200000000000E+00 -5.5236942191191E-02 -2.2519955138178E-01
154  1.5300000000000E+00 -4.7210902929605E-02 -2.5240403280280E-01
155  1.5400000000000E+00 -3.9836220920500E-02 -2.7422471395793E-01
156  1.5500000000000E+00 -3.3117602569260E-02 -2.9085645747677E-01
157  1.5600000000000E+00 -2.7052903956279E-02 -3.0252899783463E-01
158  1.5700000000000E+00 -2.1633441759199E-02 -3.0950483135963E-01
159  1.5800000000000E+00 -1.6844368772516E-02 -3.1207674223803E-01
160  1.5900000000000E+00 -1.2665108356087E-02 -3.1056500361431E-01
161  1.6000000000000E+00 -9.0698429126288E-03 -3.0531428314913E-01
162  1.6100000000000E+00 -6.0280512067685E-03 -2.9669028304955E-01
163  1.6200000000000E+00 -3.5050887899531E-03 -2.8507614764941E-01
164  1.6300000000000E+00 -1.4628052665865E-03 -2.7086867466212E-01
165  1.6400000000000E+00  1.3980827754075E-04 -2.5447436851140E-01
166  1.6500000000000E+00  1.3459487145432E-03 -2.3630537610890E-01
167  1.6600000000000E+00  2.2003146093618E-03 -2.1677534786052E-01
168  1.6700000000000E+00  2.7484113700298E-03 -1.9629526408622E-01
169  1.6800000000000E+00  3.0358562666531E-03 -1.7526927655471E-01
170  1.6900000000000E+00  3.1076928816925E-03 -1.5409061400605E-01
171  1.7000000000000E+00  3.0076943948337E-03 -1.3313748191121E-01
172  1.7100000000000E+00  2.7777867410312E-03 -1.1276949374112E-01
173  1.7200000000000E+00  2.4571678562888E-03 -9.3322978708411E-02
174  1.7300000000000E+00  2.0788322008218E-03 -7.5095555023793E-02
175  1.7400000000000E+00  1.6736583592976E-03 -5.8361605531938E-02
176  1.7500000000000E+00  1.2724683899228E-03 -4.3380182999998E-02
177  1.7600000000000E+00  9.0083145774341E-04 -3.0373360253398E-02
178  1.7700000000000E+00  5.7914096290435E-04 -1.9525732745364E-02
179  1.7800000000000E+00  3.2227212349502E-04 -1.0984226847994E-02
180  1.7900000000000E+00  1.3885212917861E-04 -4.8378386755731E-03
181  1.8000000000000E+00  3.3094811231364E-05 -1.1938616746411E-03
182  1.8100000000000E+00 -2.3860404543188E-07  8.9895034187377E-06
183  1.8200000000000E+00 -2.1733306353510E-07  8.3118175091019E-06
184  1.83  0. -0.
185  1.84 -0.  0.
186  1.85 -0. -0.
187  1.86  0.  0.
188  1.87  0.  0.
189  1.88  0.  0.
190  1.89  0.  0.
191  1.90  0.  0.
192  1.91  0.  0.
193  1.92  0.  0.
194  1.93  0.  0.
195  1.94  0.  0.
196  1.95  0.  0.
197  1.96  0.  0.
198  1.97  0.  0.
199  1.98  0.  0.
200  1.99  0.  0.
201  2.00  0.  0.
202  2.01  0.  0.
203  2.02  0.  0.
204  2.03  0.  0.
205  2.04  0.  0.
206  2.05  0.  0.
207  2.06  0.  0.
208  2.07  0.  0.
209  2.08  0.  0.
210  2.09  0.  0.
211  2.10  0.  0.
212  2.11  0.  0.
213  2.12  0.  0.
214  2.13  0.  0.
215  2.14  0.  0.
216  2.15  0.  0.
217  2.16  0.  0.
218  2.17  0.  0.
219  2.18  0.  0.
220  2.19  0.  0.
221  2.20  0.  0.
222  2.21  0.  0.
223  2.22  0.  0.
224  2.23  0.  0.
225  2.24  0.  0.
226  2.25  0.  0.
227  2.26  0.  0.
228  2.27  0.  0.
229  2.28  0.  0.
230  2.29  0.  0.
231  2.30  0.  0.
232  2.31  0.  0.
233  2.32  0.  0.
234  2.33  0.  0.
235  2.34  0.  0.
236  2.35  0.  0.
237  2.36  0.  0.
238  2.37  0.  0.
239  2.38  0.  0.
240  2.39  0.  0.
241  2.40  0.  0.
242  2.41  0.  0.
243  2.42  0.  0.
244  2.43  0.  0.
245  2.44  0.  0.
246  2.45  0.  0.
247  2.46  0.  0.
248  2.47  0.  0.
249  2.48  0.  0.
250  2.49  0.  0.
251  2.50  0.  0.
252  2.51  0.  0.
253  2.52  0.  0.
254  2.53  0.  0.
255  2.54  0.  0.
256  2.55  0.  0.
257  2.56  0.  0.
258  2.57  0.  0.
259  2.58  0.  0.
260  2.59  0.  0.
261  2.60  0.  0.
262  2.61  0.  0.
263  2.62  0.  0.
264  2.63  0.  0.
265  2.64  0.  0.
266  2.65  0.  0.
267  2.66  0.  0.
268  2.67  0.  0.
269  2.68  0.  0.
270  2.69  0.  0.
271  2.70  0.  0.
272  2.71  0.  0.
273  2.72  0.  0.
274  2.73  0.  0.
275  2.74  0.  0.
276  2.75  0.  0.
277  2.76  0.  0.
278  2.77  0.  0.
279  2.78  0.  0.
280  2.79  0.  0.
281  2.80  0.  0.
282  2.81  0.  0.
283  2.82  0.  0.
284  2.83  0.  0.
285  2.84  0.  0.
286  2.85  0.  0.
287  2.86  0.  0.
288  2.87  0.  0.
289  2.88  0.  0.
290  2.89  0.  0.
291  2.90  0.  0.
292  2.91  0.  0.
293  2.92  0.  0.
294  2.93  0.  0.
295  2.94  0.  0.
296  2.95  0.  0.
297  2.96  0.  0.
298  2.97  0.  0.
299  2.98  0.  0.
300  2.99  0.  0.
301  3.00  0.  0.
302  3.01  0.  0.
303  3.02  0.  0.
304  3.03  0.  0.
305  3.04  0.  0.
306  3.05  0.  0.
307  3.06  0.  0.
308  3.07  0.  0.
309  3.08  0.  0.
310  3.09  0.  0.
311  3.10  0.  0.
312  3.11  0.  0.
313  3.12  0.  0.
314  3.13  0.  0.
315  3.14  0.  0.
316  3.15  0.  0.
317  3.16  0.  0.
318  3.17  0.  0.
319  3.18  0.  0.
320  3.19  0.  0.
321  3.20  0.  0.
322  3.21  0.  0.
323  3.22  0.  0.
324  3.23  0.  0.
325  3.24  0.  0.
326  3.25  0.  0.
327  3.26  0.  0.
328  3.27  0.  0.
329  3.28  0.  0.
330  3.29  0.  0.
331  3.30  0.  0.
332  3.31  0.  0.
333  3.32  0.  0.
334  3.33  0.  0.
335  3.34  0.  0.
336  3.35  0.  0.
337  3.36  0.  0.
338  3.37  0.  0.
339  3.38  0.  0.
340  3.39  0.  0.
341  3.40  0.  0.
342  3.41  0.  0.
343  3.42  0.  0.
344  3.43  0.  0.
345  3.44  0.  0.
346  3.45  0.  0.
347  3.46  0.  0.
348  3.47  0.  0.
349  3.48  0.  0.
350  3.49  0.  0.
351  3.50  0.  0.
352  3.51  0.  0.
353  3.52  0.  0.
354  3.53  0.  0.
355  3.54  0.  0.
356  3.55  0.  0.
357  3.56  0.  0.
358  3.57  0.  0.
359  3.58  0.  0.
360  3.59  0.  0.
361  3.60  0.  0.
362  3.61  0.  0.
363  3.62  0.  0.
364  3.63  0.  0.
365  3.64  0.  0.
366  3.65  0.  0.
367  3.66  0.  0.
368  3.67  0.  0.
369  3.68  0.  0.
370  3.69  0.  0.
371  3.70  0.  0.
372  3.71  0.  0.
373  3.72  0.  0.
374  3.73  0.  0.
375  3.74  0.  0.
376  3.75  0.  0.
377  3.76  0.  0.
378  3.77  0.  0.
379  3.78  0.  0.
380  3.79  0.  0.
381  3.80  0.  0.
382  3.81  0.  0.
383  3.82  0.  0.
384  3.83  0.  0.
385  3.84  0.  0.
386  3.85  0.  0.
387  3.86  0.  0.
388  3.87  0.  0.
389  3.88  0.  0.
390  3.89  0.  0.
391  3.90  0.  0.
392  3.91  0.  0.
393  3.92  0.  0.
394  3.93  0.  0.
395  3.94  0.  0.
396  3.95  0.  0.
397  3.96  0.  0.
398  3.97  0.  0.
399  3.98  0.  0.
400  3.99  0.  0.
401  4.00  0.  0.
402  4.01  0.  0.
403  4.02  0.  0.
404  4.03  0.  0.
405  4.04  0.  0.
406  4.05  0.  0.
407  4.06  0.  0.
408  4.07  0.  0.
409  4.08  0.  0.
410  4.09  0.  0.
411  4.10  0.  0.
412  4.11  0.  0.
413  4.12  0.  0.
414  4.13  0.  0.
415  4.14  0.  0.
416  4.15  0.  0.
417  4.16  0.  0.
418  4.17  0.  0.
419  4.18  0.  0.
420  4.19  0.  0.
421  4.20  0.  0.
422  4.21  0.  0.
423  4.22  0.  0.
424  4.23  0.  0.
425  4.24  0.  0.
426  4.25  0.  0.
427  4.26  0.  0.
428  4.27  0.  0.
429  4.28  0.  0.
430  4.29  0.  0.
431  4.30  0.  0.
432  4.31  0.  0.
433  4.32  0.  0.
434  4.33  0.  0.
435  4.34  0.  0.
436  4.35  0.  0.
437  4.36  0.  0.
438  4.37  0.  0.
439  4.38  0.  0.
440  4.39  0.  0.
441  4.40  0.  0.
442  4.41  0.  0.
443  4.42  0.  0.
444  4.43  0.  0.
445  4.44  0.  0.
446  4.45  0.  0.
447  4.46  0.  0.
448  4.47  0.  0.
449  4.48  0.  0.
450  4.49  0.  0.
451  4.50  0.  0.
452  4.51  0.  0.
453  4.52  0.  0.
454  4.53  0.  0.
455  4.54  0.  0.
456  4.55  0.  0.
457  4.56  0.  0.
458  4.57  0.  0.
459  4.58  0.  0.
460  4.59  0.  0.
461  4.60  0.  0.
462  4.61  0.  0.
463  4.62  0.  0.
464  4.63  0.  0.
465  4.64  0.  0.
466  4.65  0.  0.
467  4.66  0.  0.
468  4.67  0.  0.
469  4.68  0.  0.
470  4.69  0.  0.
471  4.70  0.  0.
472  4.71  0.  0.
473  4.72  0.  0.
474  4.73  0.  0.
475  4.74  0.  0.
476  4.75  0.  0.
477  4.76  0.  0.
478  4.77  0.  0.
479  4.78  0.  0.
480  4.79  0.  0.
481  4.80  0.  0.
482  4.81  0.  0.
483  4.82  0.  0.
484  4.83  0.  0.
485  4.84  0.  0.
486  4.85  0.  0.
487  4.86  0.  0.
488  4.87  0.  0.
489  4.88  0.  0.
490  4.89  0.  0.
491  4.90  0.  0.
492  4.91  0.  0.
493  4.92  0.  0.
494  4.93  0.  0.
495  4.94  0.  0.
496  4.95  0.  0.
497  4.96  0.  0.
498  4.97  0.  0.
499  4.98  0.  0.
500  4.99  0.  0.
501  5.00  0.  0.
502  5.01  0.  0.
503  5.02  0.  0.
504  5.03  0.  0.
505  5.04  0.  0.
506  5.05  0.  0.
507  5.06  0.  0.
508  5.07  0.  0.
509  5.08  0.  0.
510  5.09  0.  0.
511  5.10  0.  0.
512  5.11  0.  0.
513  5.12  0.  0.
514  5.13  0.  0.
515  5.14  0.  0.
516  5.15  0.  0.
517  5.16  0.  0.
518  5.17  0.  0.
519  5.18  0.  0.
520  5.19  0.  0.
521  5.20  0.  0.
522  5.21  0.  0.
523  5.22  0.  0.
524  5.23  0.  0.
525  5.24  0.  0.
526  5.25  0.  0.
527  5.26  0.  0.
528  5.27  0.  0.
529  5.28  0.  0.
530  5.29  0.  0.
531  5.30  0.  0.
532  5.31  0.  0.
533  5.32  0.  0.
534  5.33  0.  0.
535  5.34  0.  0.
536  5.35  0.  0.
537  5.36  0.  0.
538  5.37  0.  0.
539  5.38  0.  0.
540  5.39  0.  0.
541  5.40  0.  0.
542  5.41  0.  0.
543  5.42  0.  0.
544  5.43  0.  0.
545  5.44  0.  0.
546  5.45  0.  0.
547  5.46  0.  0.
548  5.47  0.  0.
549  5.48  0.  0.
550  5.49  0.  0.
551  5.50  0.  0.
552  5.51  0.  0.
553  5.52  0.  0.
554  5.53  0.  0.
555  5.54  0.  0.
556  5.55  0.  0.
557  5.56  0.  0.
558  5.57  0.  0.
559  5.58  0.  0.
560  5.59  0.  0.
561  5.60  0.  0.
562  5.61  0.  0.
563  5.62  0.  0.
564  5.63  0.  0.
565  5.64  0.  0.
566  5.65  0.  0.
567  5.66  0.  0.
568  5.67  0.  0.
569  5.68  0.  0.
570  5.69  0.  0.
571  5.70  0.  0.
572  5.71  0.  0.
573  5.72  0.  0.
574  5.73  0.  0.
575  5.74  0.  0.
576  5.75  0.  0.
577  5.76  0.  0.
578  5.77  0.  0.
579  5.78  0.  0.
580  5.79  0.  0.
581  5.80  0.  0.
582  5.81  0.  0.
583  5.82  0.  0.
584  5.83  0.  0.
585  5.84  0.  0.
586  5.85  0.  0.
587  5.86  0.  0.
588  5.87  0.  0.
589  5.88  0.  0.
590  5.89  0.  0.
591  5.90  0.  0.
592  5.91  0.  0.
593  5.92  0.  0.
594  5.93  0.  0.
595  5.94  0.  0.
596  5.95  0.  0.
597  5.96  0.  0.
598  5.97  0.  0.
599  5.98  0.  0.
600  5.99  0.  0.
1                         6.0238027802889E+00  4.1783250473271E-01
1  0.0000000000000E+00  1.1582574538371E-08 -7.4514248243895E-08
2  1.0000000000000E-02  1.3857988254475E-03 -2.8487419199041E-03
3  2.0000000000000E-02  5.5283691599854E-03 -1.1312911031908E-02
4  3.0000000000000E-02  1.2383541299054E-02 -2.5148312036442E-02
5  4.0000000000000E-02  2.1878721128563E-02 -4.3954489892718E-02
6  5.0000000000000E-02  3.3914398839009E-02 -6.7184378933293E-02
7  6.0000000000000E-02  4.8366212932848E-02 -9.4157502046322E-02
8  7.0000000000000E-02  6.5087522626807E-02 -1.2407641859402E-01
9  8.0000000000000E-02  8.3912430168193E-02 -1.5604604522165E-01
10  9.0000000000000E-02  1.0465918430956E-01 -1.8909540753512E-01
11  1.0000000000000E-01  1.2713388745042E-01 -2.2220132426342E-01
12  1.1000000000000E-01  1.5113442195570E-01 -2.5431348023915E-01
13  1.2000000000000E-01  1.7645450605767E-01 -2.8438031134665E-01
14  1.3000000000000E-01  2.0288778665941E-01 -3.1137510426394E-01
15  1.4000000000000E-01  2.3023187535667E-01 -3.3432170683843E-01
16  1.5000000000000E-01  2.5829223510963E-01 -3.5231925147572E-01
17  1.6000000000000E-01  2.8688582820749E-01 -3.6456531387736E-01
18  1.7000000000000E-01  3.1584444141160E-01 -3.7037696243270E-01
19  1.8000000000000E-01  3.4501761132710E-01 -3.6920919886553E-01
20  1.9000000000000E-01  3.7427508198589E-01 -3.6067034739396E-01
21  2.0000000000000E-01  4.0350873713169E-01 -3.4453401647197E-01
22  2.1000000000000E-01  4.3263396155447E-01 -3.2074733270020E-01
23  2.2000000000000E-01  4.6159039876621E-01 -2.8943522909013E-01
24  2.3000000000000E-01  4.9034208606001E-01 -2.5090065773938E-01
25  2.4000000000000E-01  5.1887696224705E-01 -2.0562068821034E-01
26  2.5000000000000E-01  5.4720575780456E-01 -1.5423854549583E-01
27  2.6000000000000E-01  5.7536029147285E-01 -9.7551733366712E-02
28  2.7000000000000E-01  6.0339121119016E-01 -3.6496478092191E-02
29  2.8000000000000E-01  6.3136523033893E-01  2.7871187980391E-02
30  2.9000000000000E-01  6.5936192230076E-01  9.4397305593159E-02
31  3.0000000000000E-01  6.8747014700361E-01  1.6185436354055E-01
32  3.1000000000000E-01  7.1578419224864E-01  2.2896764284708E-01
33  3.2000000000000E-01  7.4439971991047E-01  2.9444295525545E-01
34  3.3000000000000E-01  7.7340961243870E-01  3.5699516523784E-01
35  3.4000000000000E-01  8.0289981831817E-01  4.1537686216936E-01
36  3.5000000000000E-01  8.3294529618101E-01  4.6840654062415E-01
37  3.6000000000000E-01  8.6360615606723E-01  5.1499565225278E-01
38  3.7000000000000E-01  8.9492409290919E-01  5.5417391235255E-01
39  3.8000000000000E-01  9.2691920172823E-01  5.8511227771411E-01
40  3.9000000000000E-01  9.5958725638353E-01  6.0714305898236E-01
41  4.0000000000000E-01  9.9289752415623E-01  6.1977668967556E-01
42  4.1000000000000E-01  1.0267911771813E+00  6.2271474396037E-01
43  4.2000000000000E-01  1.0611803489891E+00  6.1585887482784E-01
44  4.3000000000000E-01  1.0959478704556E+00  5.9931543178257E-01
45  4.4000000000000E-01  1.1309477045867E+00  5.7339561068590E-01
46  4.5000000000000E-01  1.1660060840889E+00  5.3861108597735E-01
47  4.6000000000000E-01  1.2009233399526E+00  4.9566517503095E-01
48  4.7000000000000E-01  1.2354763936278E+00  4.4543968371327E-01
49  4.8000000000000E-01  1.2694218701633E+00  3.8897767912287E-01
50  4.9000000000000E-01  1.3024997752335E+00  3.2746252785824E-01
51  5.0000000000000E-01  1.3344376656316E+00  2.6219362392420E-01
52  5.1000000000000E-01  1.3649552308586E+00  1.9455930760741E-01
53  5.2000000000000E-01  1.3937691931611E+00  1.2600754356805E-01
54  5.3000000000000E-01  1.4205984250210E+00  5.8014981450321E-02
55  5.4000000000000E-01  1.4451691768576E+00 -7.9449357986611E-03
56  5.5000000000000E-01  1.4672203037527E+00 -7.0434123027437E-02
57  5.6000000000000E-01  1.4865083784376E+00 -1.2808155777201E-01
58  5.7000000000000E-01  1.5028125786647E+00 -1.7961383591521E-01
59  5.8000000000000E-01  1.5159392404199E+00 -2.2388389311683E-01
60  5.9000000000000E-01  1.5257259741742E+00 -2.5989724022584E-01
61  6.0000000000000E-01  1.5320452494256E+00 -2.8683510868602E-01
62  6.1000000000000E-01  1.5348073629837E+00 -3.0407396343300E-01
63  6.2000000000000E-01  1.5339627186136E+00 -3.1120091473619E-01
64  6.3000000000000E-01  1.5295033595294E+00 -3.0802464537115E-01
65  6.4000000000000E-01  1.5214637105276E+00 -2.9458156366466E-01
66  6.5000000000000E-01  1.5099205029628E+00 -2.7113699437214E-01
67  6.6000000000000E-01  1.4949918729462E+00 -2.3818132588771E-01
68  6.7000000000000E-01  1.4768356407235E+00 -1.9642114167294E-01
69  6.8000000000000E-01  1.4556467967888E+00 -1.4676547367472E-01
70  6.9000000000000E-01  1.4316542375349E+00 -9.0307423497174E-02
71  7.0000000000000E-01  1.4051168097440E+00 -2.8301500826672E-02
72  7.1000000000000E-01  1.3763187386319E+00  3.7862874201110E-02
73  7.2000000000000E-01  1.3455645281156E+00  1.0669116954524E-01
74  7.3000000000000E-01  1.3131734341770E+00  1.7661622783153E-01
75  7.4000000000000E-01  1.2794736223478E+00  2.4603276285095E-01
76  7.5000000000000E-01  1.2447961282175E+00  3.1333313671380E-01
77  7.6000000000000E-01  1.2094687452623E+00  3.7694365250457E-01
78  7.7000000000000E-01  1.1738099670794E+00  4.3536057760957E-01
79  7.8000000000000E-01  1.1381231111916E+00  4.8718510999970E-01
80  7.9000000000000E-01  1.1026907489459E+00  5.3115651386153E-01
81  8.0000000000000E-01  1.0677695606880E+00  5.6618268193410E-01
82  8.1000000000000E-01  1.0335857274518E+00  5.9136742920622E-01
83  8.2000000000000E-01  1.0003309599986E+00  6.0603388538819E-01
84  8.3000000000000E-01  9.6815925338240E-01  6.0974343057256E-01
85  8.4000000000000E-01  9.3718444055767E-01  6.0230970820872E-01
86  8.5000000000000E-01  9.0747860217744E-01  5.8380735010897E-01
87  8.6000000000000E-01  8.7907137199746E-01  5.5457515761014E-01
88  8.7000000000000E-01  8.5195015856999E-01  5.1521359895172E-01
89  8.8000000000000E-01  8.2606128457627E-01  4.6657660296328E-01
90  8.9000000000000E-01  8.0131202561926E-01  4.0975775073356E-01
91  9.0000000000000E-01  7.7757351099581E-01  3.4607108746554E-01
92  9.1000000000000E-01  7.5468443030541E-01  2.7702689361299E-01
93  9.2000000000000E-01  7.3245547213733E-01  2.0430286511045E-01
94  9.3000000000000E-01  7.1067440489285E-01  1.2971125464103E-01
95  9.4000000000000E-01  6.8911169540456E-01  5.5162617173323E-02
96  9.5000000000000E-01  6.6752654872716E-01 -1.7373118565694E-02
97  9.6000000000000E-01  6.4567324257475E-01 -8.5907467209190E-02
98  9.7000000000000E-01  6.2330762259475E-01 -1.4847525926771E-01
99  9.8000000000000E-01  6.0019362017101E-01 -2.0317670533525E-01
100  9.9000000000000E-01  5.7610965285161E-01 -2.4821877571182E-01
101  1.0000000000000E+00  5.5085476885284E-01 -2.8195502494571E-01
102  1.0100000000000E+00  5.2425440139082E-01 -3.0292301490434E-01
103  1.0200000000000E+00  4.9616560575572E-01 -3.0987853197784E-01
104  1.0300000000000E+00  4.6648166193787E-01 -3.0182585312804E-01
105  1.0400000000000E+00  4.3513593805336E-01 -2.7804339061310E-01
106  1.0500000000000E+00  4.0210492452220E-01 -2.3810413467340E-01
107  1.0600000000000E+00  3.6741036565432E-01 -1.8189041562141E-01
108  1.0700000000000E+00  3.3112043364926E-01 -1.0960261952225E-01
109  1.0800000000000E+00  2.9334990957965E-01 -2.1761612311771E-02
110  1.0900000000000E+00  2.5425935642090E-01  8.0795245958104E-02
111  1.1000000000000E+00  2.1405329001441E-01  1.9692448571022E-01
112  1.1100000000000E+00  1.7297737473983E-01  3.2519317002647E-01
113  1.1200000000000E+00  1.3131469105380E-01  4.6390152565054E-01
114  1.1300000000000E+00  8.9381141577456E-02  6.1111117133848E-01
115  1.1400000000000E+00  4.7520080641159E-02  7.6467843697371E-01
116  1.1500000000000E+00  6.0962687343394E-03  9.2229216175140E-01
117  1.1600000000000E+00 -3.4510732167873E-02  1.0815152666780E+00
118  1.1700000000000E+00 -7.3913594246767E-02  1.2398293176672E+00
119  1.1800000000000E+00 -1.1172455270674E-01  1.3946812322384E+00
120  1.1900000000000E+00 -1.4756288331359E-01  1.5435312364153E+00
121  1.2000000000000E+00 -1.8106238019259E-01  1.6839011500112E+00
122  1.2100000000000E+00 -2.1187868462637E-01  1.8134220684107E+00
123  1.2200000000000E+00 -2.3969631776568E-01  1.9298805174322E+00
124  1.2300000000000E+00 -2.6423527534874E-01  2.0312621847332E+00
125  1.2400000000000E+00 -2.8525705057202E-01  2.1157923757493E+00
126  1.2500000000000E+00 -3.0256996196910E-01  2.1819724031110E+00
127  1.2600000000000E+00 -3.1603367643246E-01  2.2286111952470E+00
128  1.2700000000000E+00 -3.2556283287696E-01  2.2548514996106E+00
129  1.2800000000000E+00 -3.3112968932118E-01  2.2601901575656E+00
130  1.2900000000000E+00 -3.3276573497196E-01  2.2444920391279E+00
131  1.3000000000000E+00 -3.3056222870643E-01  2.2079973432620E+00
132  1.3100000000000E+00 -3.2466964585541E-01  2.1513220914090E+00
133  1.3200000000000E+00 -3.1529603596707E-01  2.0754517657235E+00
134  1.3300000000000E+00 -3.0270431469414E-01  1.9817281655969E+00
135  1.3400000000000E+00 -2.8720853268433E-01  1.8718296738817E+00
136  1.3500000000000E+00 -2.6916918310055E-01  1.7477452361578E+00
137  1.3600000000000E+00 -2.4898762640426E-01  1.6117424578393E+00
138  1.3700000000000E+00 -2.2709972617262E-01  1.4663303140611E+00
139  1.3800000000000E+00 -2.0396880242908E-01  1.3142170426909E+00
140  1.3900000000000E+00 -1.8007801909702E-01  1.1582638505289E+00
141  1.4000000000000E+00 -1.5592232953559E-01  1.0014351048727E+00
142  1.4100000000000E+00 -1.3200010155555E-01  8.4674567865065E-01
143  1.4200000000000E+00 -1.0880459186944E-01  6.9720631055449E-01
144  1.4300000000000E+00 -8.6815082023895E-02  5.5576640223398E-01
145  1.4400000000000E+00 -6.6486826413214E-02  4.2525118066612E-01
146  1.4500000000000E+00 -4.8247654662906E-02  3.0832431910346E-01
147  1.4600000000000E+00 -3.2487672016265E-02  2.0742205477825E-01
148  1.4700000000000E+00 -1.9548732515248E-02  1.2468570226419E-01
149  1.4800000000000E+00 -9.7205695429024E-03  6.1926939781311E-02