Gd    ONCVPSP-4.0.1  r_core=   2.00348   1.60569   1.90986   1.60569
64.0000     18.0000      241206    zatom,zion,pspd
8      11   3     4   600     0    pspcod,pspxc,lmax,lloc,mmax,r2well
5.99000000  4.00000000  0.00000000    rchrg fchrg qchrg
2     2     2     2     0    nproj
1     1           extension_switch
0                         6.6467474674017E+00  5.1081242191884E-01
1  0.0000000000000E+00  9.6244234804033E-11 -4.0931944986222E-10
2  1.0000000000000E-02  4.2157329526481E-02 -2.4288678525162E-03
3  2.0000000000000E-02  8.4291351635535E-02 -4.9062813888570E-03
4  3.0000000000000E-02  1.2637856743528E-01 -7.4799445824342E-03
5  4.0000000000000E-02  1.6839509752153E-01 -1.0195887798933E-02
6  5.0000000000000E-02  2.1031649778863E-01 -1.3097655420190E-02
7  6.0000000000000E-02  2.5211758245174E-01 -1.6225522488492E-02
8  7.0000000000000E-02  2.9377225657052E-01 -1.9615749559806E-02
9  8.0000000000000E-02  3.3525336026795E-01 -2.3299884545101E-02
10  9.0000000000000E-02  3.7653252671911E-01 -2.7304119815104E-02
11  1.0000000000000E-01  4.1758005584561E-01 -3.1648712250582E-02
12  1.1000000000000E-01  4.5836480549131E-01 -3.6347473243790E-02
13  1.2000000000000E-01  4.9885410167759E-01 -4.1407334903492E-02
14  1.3000000000000E-01  5.3901366934212E-01 -4.6827997894565E-02
15  1.4000000000000E-01  5.7880758475611E-01 -5.2601665460613E-02
16  1.5000000000000E-01  6.1819825059369E-01 -5.8712867244867E-02
17  1.6000000000000E-01  6.5714639439527E-01 -6.5138375549343E-02
18  1.7000000000000E-01  6.9561109092650E-01 -7.1847215665052E-02
19  1.8000000000000E-01  7.3354980868908E-01 -7.8800770878121E-02
20  1.9000000000000E-01  7.7091848058999E-01 -8.5952981717382E-02
21  2.0000000000000E-01  8.0767159852619E-01 -9.3250637970403E-02
22  2.1000000000000E-01  8.4376233139277E-01 -1.0063376096691E-01
23  2.2000000000000E-01  8.7914266577855E-01 -1.0803607262234E-01
24  2.3000000000000E-01  9.1376356837459E-01 -1.1538554676082E-01
25  2.4000000000000E-01  9.4757516889195E-01 -1.2260503730534E-01
26  2.5000000000000E-01  9.8052696206719E-01 -1.2961297704471E-01
27  2.6000000000000E-01  1.0125680271285E+00 -1.3632413987056E-01
28  2.7000000000000E-01  1.0436472629065E+00 -1.4265045863193E-01
29  2.8000000000000E-01  1.0737136366016E+00 -1.4850189008947E-01
30  2.9000000000000E-01  1.1027164440653E+00 -1.5378731787066E-01
31  3.0000000000000E-01  1.1306055793222E+00 -1.5841548384253E-01
32  3.1000000000000E-01  1.1573318109473E+00 -1.6229593792962E-01
33  3.2000000000000E-01  1.1828470628269E+00 -1.6533999612219E-01
34  3.3000000000000E-01  1.2071046967668E+00 -1.6746169624256E-01
35  3.4000000000000E-01  1.2300597943746E+00 -1.6857874097161E-01
36  3.5000000000000E-01  1.2516694356283E+00 -1.6861341768162E-01
37  3.6000000000000E-01  1.2718929715568E+00 -1.6749348477909E-01
38  3.7000000000000E-01  1.2906922884949E+00 -1.6515301452801E-01
39  3.8000000000000E-01  1.3080320614386E+00 -1.6153318270112E-01
40  3.9000000000000E-01  1.3238799941143E+00 -1.5658299588921E-01
41  4.0000000000000E-01  1.3382070434869E+00 -1.5025994788211E-01
42  4.1000000000000E-01  1.3509876265653E+00 -1.4253059721610E-01
43  4.2000000000000E-01  1.3621998075203E+00 -1.3337105875282E-01
44  4.3000000000000E-01  1.3718254633062E+00 -1.2276740300748E-01
45  4.4000000000000E-01  1.3798504261691E+00 -1.1071595787223E-01
46  4.5000000000000E-01  1.3862646016391E+00 -9.7223508373040E-02
47  4.6000000000000E-01  1.3910620608252E+00 -8.2307391146479E-02
48  4.7000000000000E-01  1.3942411060710E+00 -6.5995481416066E-02
49  4.8000000000000E-01  1.3958043092748E+00 -4.8326071374208E-02
50  4.9000000000000E-01  1.3957585224334E+00 -2.9347640024828E-02
51  5.0000000000000E-01  1.3941148602266E+00 -9.1185157007156E-03
52  5.1000000000000E-01  1.3908886547216E+00  1.2293566373117E-02
53  5.2000000000000E-01  1.3860993825372E+00  3.4812007955662E-02
54  5.3000000000000E-01  1.3797705650639E+00  5.8351988474493E-02
55  5.4000000000000E-01  1.3719296425917E+00  8.2821196808847E-02
56  5.5000000000000E-01  1.3626078234362E+00  1.0812064743325E-01
57  5.6000000000000E-01  1.3518399093915E+00  1.3414557321550E-01
58  5.7000000000000E-01  1.3396640990528E+00  1.6078638626902E-01
59  5.8000000000000E-01  1.3261217707627E+00  1.8792969744538E-01
60  5.9000000000000E-01  1.3112572471146E+00  2.1545938433221E-01
61  6.0000000000000E-01  1.2951175431192E+00  2.4325769699945E-01
62  6.1000000000000E-01  1.2777521002853E+00  2.7120639022318E-01
63  6.2000000000000E-01  1.2592125089870E+00  2.9918787051536E-01
64  6.3000000000000E-01  1.2395522215916E+00  3.2708634600621E-01
65  6.4000000000000E-01  1.2188262588964E+00  3.5478896706759E-01
66  6.5000000000000E-01  1.1970909124701E+00  3.8218694553202E-01
67  6.6000000000000E-01  1.1744034455193E+00  4.0917664045592E-01
68  6.7000000000000E-01  1.1508217948939E+00  4.3566059859658E-01
69  6.8000000000000E-01  1.1264042768176E+00  4.6154853811828E-01
70  6.9000000000000E-01  1.1012092988730E+00  4.8675826451243E-01
71  7.0000000000000E-01  1.0752950806880E+00  5.1121650830433E-01
72  7.1000000000000E-01  1.0487193856671E+00  5.3485967482095E-01
73  7.2000000000000E-01  1.0215392659792E+00  5.5763449710196E-01
74  7.3000000000000E-01  9.9381082286774E-01  5.7949858394363E-01
75  7.4000000000000E-01  9.6558898417252E-01  6.0042085606265E-01
76  7.5000000000000E-01  9.3692730076994E-01  6.2038186444374E-01
77  7.6000000000000E-01  9.0787776343010E-01  6.3937398608183E-01
78  7.7000000000000E-01  8.7849064137289E-01  6.5740149353296E-01
79  7.8000000000000E-01  8.4881434357520E-01  6.7448049593724E-01
80  7.9000000000000E-01  8.1889530364376E-01  6.9063875045821E-01
81  8.0000000000000E-01  7.8877788882365E-01  7.0591534438279E-01
82  8.1000000000000E-01  7.5850433346529E-01  7.2036024943109E-01
83  8.2000000000000E-01  7.2811469702424E-01  7.3403375112288E-01
84  8.3000000000000E-01  6.9764684642228E-01  7.4700575732215E-01
85  8.4000000000000E-01  6.6713646235613E-01  7.5935499132193E-01
86  8.5000000000000E-01  6.3661706890633E-01  7.7116807602365E-01
87  8.6000000000000E-01  6.0612008557338E-01  7.8253851689809E-01
88  8.7000000000000E-01  5.7567490065592E-01  7.9356559247511E-01
89  8.8000000000000E-01  5.4530896468637E-01  8.0435316208845E-01
90  8.9000000000000E-01  5.1504790245695E-01  8.1500840148767E-01
91  9.0000000000000E-01  4.8491564200350E-01  8.2564047771577E-01
92  9.1000000000000E-01  4.5493455876845E-01  8.3635917532842E-01
93  9.2000000000000E-01  4.2512563303846E-01  8.4727348659555E-01
94  9.3000000000000E-01  3.9550861864740E-01  8.5849017877060E-01
95  9.4000000000000E-01  3.6610222085242E-01  8.7011235183761E-01
96  9.5000000000000E-01  3.3692428122989E-01  8.8223800034593E-01
97  9.6000000000000E-01  3.0799196739915E-01  8.9495859301927E-01
98  9.7000000000000E-01  2.7932196536469E-01  9.0835768378013E-01
99  9.8000000000000E-01  2.5093067227142E-01  9.2250956766540E-01
100  9.9000000000000E-01  2.2283438739189E-01  9.3747799482758E-01
101  1.0000000000000E+00  1.9504949920743E-01  9.5331495542540E-01
102  1.0100000000000E+00  1.6759266650637E-01  9.7005954771257E-01
103  1.0200000000000E+00  1.4048099149924E-01  9.8773694104338E-01
104  1.0300000000000E+00  1.1373218304250E-01  1.0063574448365E+00
105  1.0400000000000E+00  8.7364708165853E-02  1.0259156937829E+00
106  1.0500000000000E+00  6.1397930212148E-02  1.0463899587619E+00
107  1.0600000000000E+00  3.5852232021107E-02  1.0677415920512E+00
108  1.0700000000000E+00  1.0749122716107E-02  1.0899146144891E+00
109  1.0800000000000E+00 -1.3888673214859E-02  1.1128354512911E+00
110  1.0900000000000E+00 -3.8037145719129E-02  1.1364128222342E+00
111  1.1000000000000E+00 -6.1670948902155E-02  1.1605377909274E+00
112  1.1100000000000E+00 -8.4763371583566E-02  1.1850839768815E+00
113  1.1200000000000E+00 -1.0728632946941E-01  1.2099079330929E+00
114  1.1300000000000E+00 -1.2921037960106E-01  1.2348496908705E+00
115  1.1400000000000E+00 -1.5050475762481E-01  1.2597334726640E+00
116  1.1500000000000E+00 -1.7113743831693E-01  1.2843685727100E+00
117  1.1600000000000E+00 -1.9107521969667E-01  1.3085504043895E+00
118  1.1700000000000E+00 -2.1028383096515E-01  1.3320617123052E+00
119  1.1800000000000E+00 -2.2872806441982E-01  1.3546739462199E+00
120  1.1900000000000E+00 -2.4637193141206E-01  1.3761487931612E+00
121  1.2000000000000E+00 -2.6317884233825E-01  1.3962398631814E+00
122  1.2100000000000E+00 -2.7911181057876E-01  1.4146945234551E+00
123  1.2200000000000E+00 -2.9413368022528E-01  1.4312558745971E+00
124  1.2300000000000E+00 -3.0820737735835E-01  1.4456648622751E+00
125  1.2400000000000E+00 -3.2129618455336E-01  1.4576625163594E+00
126  1.2500000000000E+00 -3.3336403819915E-01  1.4669923089844E+00
127  1.2600000000000E+00 -3.4437584810395E-01  1.4734026219663E+00
128  1.2700000000000E+00 -3.5429783873543E-01  1.4766493130180E+00
129  1.2800000000000E+00 -3.6309791128795E-01  1.4764983690951E+00
130  1.2900000000000E+00 -3.7074602558560E-01  1.4727286339689E+00
131  1.3000000000000E+00 -3.7721460060816E-01  1.4651345957352E+00
132  1.3100000000000E+00 -3.8247893216279E-01  1.4535292183976E+00
133  1.3200000000000E+00 -3.8651762590713E-01  1.4377467998698E+00
134  1.3300000000000E+00 -3.8931304355609E-01  1.4176458367112E+00
135  1.3400000000000E+00 -3.9085175966656E-01  1.3931118736003E+00
136  1.3500000000000E+00 -3.9112502587915E-01  1.3640603129084E+00
137  1.3600000000000E+00 -3.9012923890324E-01  1.3304391567614E+00
138  1.3700000000000E+00 -3.8786640784538E-01  1.2922316505934E+00
139  1.3800000000000E+00 -3.8434461570249E-01  1.2494587934127E+00
140  1.3900000000000E+00 -3.7957846894594E-01  1.2021816757009E+00
141  1.4000000000000E+00 -3.7358952812088E-01  1.1505036011049E+00
142  1.4100000000000E+00 -3.6640671125209E-01  1.0945719427350E+00
143  1.4200000000000E+00 -3.5806666058370E-01  1.0345796789594E+00
144  1.4300000000000E+00 -3.4861406177250E-01  9.7076654702124E-01
145  1.4400000000000E+00 -3.3810190308867E-01  9.0341974553540E-01
146  1.4500000000000E+00 -3.2659166045621E-01  8.3287410895398E-01
147  1.4600000000000E+00 -3.1415339226616E-01  7.5951166832166E-01
148  1.4700000000000E+00 -3.0086572580974E-01  6.8376050303446E-01
149  1.4800000000000E+00 -2.8681571491024E-01  6.0609277787502E-01
150  1.4900000000000E+00 -2.7209854584212E-01  5.2702184815494E-01
151  1.5000000000000E+00 -2.5681706592985E-01  4.4709830340427E-01
152  1.5100000000000E+00 -2.4108110629106E-01  3.6690480660394E-01
153  1.5200000000000E+00 -2.2500656701793E-01  2.8704957138831E-01
154  1.5300000000000E+00 -2.0871422966542E-01  2.0815830390755E-01
155  1.5400000000000E+00 -1.9232825822200E-01  1.3086441905917E-01
156  1.5500000000000E+00 -1.7597434576114E-01  5.5797322498316E-02
157  1.5600000000000E+00 -1.5977745969358E-01 -1.6431469864295E-02
158  1.5700000000000E+00 -1.4385913396498E-01 -8.5244624258905E-02
159  1.5800000000000E+00 -1.2833425001438E-01 -1.5011797594278E-01
160  1.5900000000000E+00 -1.1330724291810E-01 -2.1060251666962E-01
161  1.6000000000000E+00 -9.8867774201501E-02 -2.6634900121443E-01
162  1.6100000000000E+00 -8.5085198699372E-02 -3.1713943067379E-01
163  1.6200000000000E+00 -7.2007881625515E-02 -3.6288567388239E-01
164  1.6300000000000E+00 -5.9672663450492E-02 -4.0356288784458E-01
165  1.6400000000000E+00 -4.8110590394673E-02 -4.3917058976233E-01
166  1.6500000000000E+00 -3.7346481361874E-02 -4.6973518624428E-01
167  1.6600000000000E+00 -2.7398939821593E-02 -4.9530960593603E-01
168  1.6700000000000E+00 -1.8280324152353E-02 -5.1597332170659E-01
169  1.6800000000000E+00 -9.9967648538982E-03 -5.3183216033098E-01
170  1.6900000000000E+00 -2.5482336471062E-03 -5.4301786924144E-01
171  1.7000000000000E+00  4.0713406016968E-03 -5.4968747241784E-01
172  1.7100000000000E+00  9.8739068543679E-03 -5.5202240028935E-01
173  1.7200000000000E+00  1.4877079622846E-02 -5.5022740344367E-01
174  1.7300000000000E+00  1.9103882509729E-02 -5.4452926685454E-01
175  1.7400000000000E+00  2.2582447340684E-02 -5.3517532022744E-01
176  1.7500000000000E+00  2.5345672438431E-02 -5.2243176286155E-01
177  1.7600000000000E+00  2.7430842348419E-02 -5.0658181314325E-01
178  1.7700000000000E+00  2.8879212169151E-02 -4.8792369744561E-01
179  1.7800000000000E+00  2.9735559888109E-02 -4.6676849422750E-01
180  1.7900000000000E+00  3.0047710438099E-02 -4.4343785059725E-01
181  1.8000000000000E+00  2.9866035494111E-02 -4.1826159006627E-01
182  1.8100000000000E+00  2.9242933237600E-02 -3.9157523113887E-01
183  1.8200000000000E+00  2.8232292565665E-02 -3.6371743761021E-01
184  1.8300000000000E+00  2.6888946334914E-02 -3.3502742190900E-01
185  1.8400000000000E+00  2.5268118391610E-02 -3.0584232362480E-01
186  1.8500000000000E+00  2.3424869219452E-02 -2.7649458572986E-01
187  1.8600000000000E+00  2.1413545042566E-02 -2.4730935100744E-01
188  1.8700000000000E+00  1.9287237634657E-02 -2.1860191032557E-01
189  1.8800000000000E+00  1.7097235886457E-02 -1.9067513610570E-01
190  1.8900000000000E+00  1.4892569269060E-02 -1.6381727734015E-01
191  1.9000000000000E+00  1.2719452668501E-02 -1.3829942784968E-01
192  1.9100000000000E+00  1.0619706879527E-02 -1.1436910731274E-01
193  1.9200000000000E+00  8.6298175824770E-03 -9.2246179596607E-02
194  1.9300000000000E+00  6.7861208102077E-03 -7.2142103888170E-02
195  1.9400000000000E+00  5.1207517651992E-03 -5.4244587217137E-02
196  1.9500000000000E+00  3.6608037365088E-03 -3.8714122943155E-02
197  1.9600000000000E+00  2.4281743159322E-03 -2.5683123130605E-02
198  1.9700000000000E+00  1.4395270442160E-03 -1.5257016697746E-02
199  1.9800000000000E+00  7.0491430419266E-04 -7.5002541618814E-03
200  1.9900000000000E+00  2.2941697460525E-04 -2.4550465638548E-03
201  2.0000000000000E+00  2.3504177471233E-05 -2.5361383068175E-04
202  2.0100000000000E+00 -7.8759846535100E-06  8.5250569869994E-05
203  2.0200000000000E+00  2.6036364829894E-06 -2.8039602561786E-05
204  2.03 -0.  0.
205  2.04 -0.  0.
206  2.05 -0.  0.
207  2.06  0.  0.
208  2.07  0.  0.
209  2.08  0.  0.
210  2.09  0.  0.
211  2.10  0.  0.
212  2.11  0.  0.
213  2.12  0.  0.
214  2.13  0.  0.
215  2.14  0.  0.
216  2.15  0.  0.
217  2.16  0.  0.
218  2.17  0.  0.
219  2.18  0.  0.
220  2.19  0.  0.
221  2.20  0.  0.
222  2.21  0.  0.
223  2.22  0.  0.
224  2.23  0.  0.
225  2.24  0.  0.
226  2.25  0.  0.
227  2.26  0.  0.
228  2.27  0.  0.
229  2.28  0.  0.
230  2.29  0.  0.
231  2.30  0.  0.
232  2.31  0.  0.
233  2.32  0.  0.
234  2.33  0.  0.
235  2.34  0.  0.
236  2.35  0.  0.
237  2.36  0.  0.
238  2.37  0.  0.
239  2.38  0.  0.
240  2.39  0.  0.
241  2.40  0.  0.
242  2.41  0.  0.
243  2.42  0.  0.
244  2.43  0.  0.
245  2.44  0.  0.
246  2.45  0.  0.
247  2.46  0.  0.
248  2.47  0.  0.
249  2.48  0.  0.
250  2.49  0.  0.
251  2.50  0.  0.
252  2.51  0.  0.
253  2.52  0.  0.
254  2.53  0.  0.
255  2.54  0.  0.
256  2.55  0.  0.
257  2.56  0.  0.
258  2.57  0.  0.
259  2.58  0.  0.
260  2.59  0.  0.
261  2.60  0.  0.
262  2.61  0.  0.
263  2.62  0.  0.
264  2.63  0.  0.
265  2.64  0.  0.
266  2.65  0.  0.
267  2.66  0.  0.
268  2.67  0.  0.
269  2.68  0.  0.
270  2.69  0.  0.
271  2.70  0.  0.
272  2.71  0.  0.
273  2.72  0.  0.
274  2.73  0.  0.
275  2.74  0.  0.
276  2.75  0.  0.
277  2.76  0.  0.
278  2.77  0.  0.
279  2.78  0.  0.
280  2.79  0.  0.
281  2.80  0.  0.
282  2.81  0.  0.
283  2.82  0.  0.
284  2.83  0.  0.
285  2.84  0.  0.
286  2.85  0.  0.
287  2.86  0.  0.
288  2.87  0.  0.
289  2.88  0.  0.
290  2.89  0.  0.
291  2.90  0.  0.
292  2.91  0.  0.
293  2.92  0.  0.
294  2.93  0.  0.
295  2.94  0.  0.
296  2.95  0.  0.
297  2.96  0.  0.
298  2.97  0.  0.
299  2.98  0.  0.
300  2.99  0.  0.
301  3.00  0.  0.
302  3.01  0.  0.
303  3.02  0.  0.
304  3.03  0.  0.
305  3.04  0.  0.
306  3.05  0.  0.
307  3.06  0.  0.
308  3.07  0.  0.
309  3.08  0.  0.
310  3.09  0.  0.
311  3.10  0.  0.
312  3.11  0.  0.
313  3.12  0.  0.
314  3.13  0.  0.
315  3.14  0.  0.
316  3.15  0.  0.
317  3.16  0.  0.
318  3.17  0.  0.
319  3.18  0.  0.
320  3.19  0.  0.
321  3.20  0.  0.
322  3.21  0.  0.
323  3.22  0.  0.
324  3.23  0.  0.
325  3.24  0.  0.
326  3.25  0.  0.
327  3.26  0.  0.
328  3.27  0.  0.
329  3.28  0.  0.
330  3.29  0.  0.
331  3.30  0.  0.
332  3.31  0.  0.
333  3.32  0.  0.
334  3.33  0.  0.
335  3.34  0.  0.
336  3.35  0.  0.
337  3.36  0.  0.
338  3.37  0.  0.
339  3.38  0.  0.
340  3.39  0.  0.
341  3.40  0.  0.
342  3.41  0.  0.
343  3.42  0.  0.
344  3.43  0.  0.
345  3.44  0.  0.
346  3.45  0.  0.
347  3.46  0.  0.
348  3.47  0.  0.
349  3.48  0.  0.
350  3.49  0.  0.
351  3.50  0.  0.
352  3.51  0.  0.
353  3.52  0.  0.
354  3.53  0.  0.
355  3.54  0.  0.
356  3.55  0.  0.
357  3.56  0.  0.
358  3.57  0.  0.
359  3.58  0.  0.
360  3.59  0.  0.
361  3.60  0.  0.
362  3.61  0.  0.
363  3.62  0.  0.
364  3.63  0.  0.
365  3.64  0.  0.
366  3.65  0.  0.
367  3.66  0.  0.
368  3.67  0.  0.
369  3.68  0.  0.
370  3.69  0.  0.
371  3.70  0.  0.
372  3.71  0.  0.
373  3.72  0.  0.
374  3.73  0.  0.
375  3.74  0.  0.
376  3.75  0.  0.
377  3.76  0.  0.
378  3.77  0.  0.
379  3.78  0.  0.
380  3.79  0.  0.
381  3.80  0.  0.
382  3.81  0.  0.
383  3.82  0.  0.
384  3.83  0.  0.
385  3.84  0.  0.
386  3.85  0.  0.
387  3.86  0.  0.
388  3.87  0.  0.
389  3.88  0.  0.
390  3.89  0.  0.
391  3.90  0.  0.
392  3.91  0.  0.
393  3.92  0.  0.
394  3.93  0.  0.
395  3.94  0.  0.
396  3.95  0.  0.
397  3.96  0.  0.
398  3.97  0.  0.
399  3.98  0.  0.
400  3.99  0.  0.
401  4.00  0.  0.
402  4.01  0.  0.
403  4.02  0.  0.
404  4.03  0.  0.
405  4.04  0.  0.
406  4.05  0.  0.
407  4.06  0.  0.
408  4.07  0.  0.
409  4.08  0.  0.
410  4.09  0.  0.
411  4.10  0.  0.
412  4.11  0.  0.
413  4.12  0.  0.
414  4.13  0.  0.
415  4.14  0.  0.
416  4.15  0.  0.
417  4.16  0.  0.
418  4.17  0.  0.
419  4.18  0.  0.
420  4.19  0.  0.
421  4.20  0.  0.
422  4.21  0.  0.
423  4.22  0.  0.
424  4.23  0.  0.
425  4.24  0.  0.
426  4.25  0.  0.
427  4.26  0.  0.
428  4.27  0.  0.
429  4.28  0.  0.
430  4.29  0.  0.
431  4.30  0.  0.
432  4.31  0.  0.
433  4.32  0.  0.
434  4.33  0.  0.
435  4.34  0.  0.
436  4.35  0.  0.
437  4.36  0.  0.
438  4.37  0.  0.
439  4.38  0.  0.
440  4.39  0.  0.
441  4.40  0.  0.
442  4.41  0.  0.
443  4.42  0.  0.
444  4.43  0.  0.
445  4.44  0.  0.
446  4.45  0.  0.
447  4.46  0.  0.
448  4.47  0.  0.
449  4.48  0.  0.
450  4.49  0.  0.
451  4.50  0.  0.
452  4.51  0.  0.
453  4.52  0.  0.
454  4.53  0.  0.
455  4.54  0.  0.
456  4.55  0.  0.
457  4.56  0.  0.
458  4.57  0.  0.
459  4.58  0.  0.
460  4.59  0.  0.
461  4.60  0.  0.
462  4.61  0.  0.
463  4.62  0.  0.
464  4.63  0.  0.
465  4.64  0.  0.
466  4.65  0.  0.
467  4.66  0.  0.
468  4.67  0.  0.
469  4.68  0.  0.
470  4.69  0.  0.
471  4.70  0.  0.
472  4.71  0.  0.
473  4.72  0.  0.
474  4.73  0.  0.
475  4.74  0.  0.
476  4.75  0.  0.
477  4.76  0.  0.
478  4.77  0.  0.
479  4.78  0.  0.
480  4.79  0.  0.
481  4.80  0.  0.
482  4.81  0.  0.
483  4.82  0.  0.
484  4.83  0.  0.
485  4.84  0.  0.
486  4.85  0.  0.
487  4.86  0.  0.
488  4.87  0.  0.
489  4.88  0.  0.
490  4.89  0.  0.
491  4.90  0.  0.
492  4.91  0.  0.
493  4.92  0.  0.
494  4.93  0.  0.
495  4.94  0.  0.
496  4.95  0.  0.
497  4.96  0.  0.
498  4.97  0.  0.
499  4.98  0.  0.
500  4.99  0.  0.
501  5.00  0.  0.
502  5.01  0.  0.
503  5.02  0.  0.
504  5.03  0.  0.
505  5.04  0.  0.
506  5.05  0.  0.
507  5.06  0.  0.
508  5.07  0.  0.
509  5.08  0.  0.
510  5.09  0.  0.
511  5.10  0.  0.
512  5.11  0.  0.
513  5.12  0.  0.
514  5.13  0.  0.
515  5.14  0.  0.
516  5.15  0.  0.
517  5.16  0.  0.
518  5.17  0.  0.
519  5.18  0.  0.
520  5.19  0.  0.
521  5.20  0.  0.
522  5.21  0.  0.
523  5.22  0.  0.
524  5.23  0.  0.
525  5.24  0.  0.
526  5.25  0.  0.
527  5.26  0.  0.
528  5.27  0.  0.
529  5.28  0.  0.
530  5.29  0.  0.
531  5.30  0.  0.
532  5.31  0.  0.
533  5.32  0.  0.
534  5.33  0.  0.
535  5.34  0.  0.
536  5.35  0.  0.
537  5.36  0.  0.
538  5.37  0.  0.
539  5.38  0.  0.
540  5.39  0.  0.
541  5.40  0.  0.
542  5.41  0.  0.
543  5.42  0.  0.
544  5.43  0.  0.
545  5.44  0.  0.
546  5.45  0.  0.
547  5.46  0.  0.
548  5.47  0.  0.
549  5.48  0.  0.
550  5.49  0.  0.
551  5.50  0.  0.
552  5.51  0.  0.
553  5.52  0.  0.
554  5.53  0.  0.
555  5.54  0.  0.
556  5.55  0.  0.
557  5.56  0.  0.
558  5.57  0.  0.
559  5.58  0.  0.
560  5.59  0.  0.
561  5.60  0.  0.
562  5.61  0.  0.
563  5.62  0.  0.
564  5.63  0.  0.
565  5.64  0.  0.
566  5.65  0.  0.
567  5.66  0.  0.
568  5.67  0.  0.
569  5.68  0.  0.
570  5.69  0.  0.
571  5.70  0.  0.
572  5.71  0.  0.
573  5.72  0.  0.
574  5.73  0.  0.
575  5.74  0.  0.
576  5.75  0.  0.
577  5.76  0.  0.
578  5.77  0.  0.
579  5.78  0.  0.
580  5.79  0.  0.
581  5.80  0.  0.
582  5.81  0.  0.
583  5.82  0.  0.
584  5.83  0.  0.
585  5.84  0.  0.
586  5.85  0.  0.
587  5.86  0.  0.
588  5.87  0.  0.
589  5.88  0.  0.
590  5.89  0.  0.
591  5.90  0.  0.
592  5.91  0.  0.
593  5.92  0.  0.
594  5.93  0.  0.
595  5.94  0.  0.
596  5.95  0.  0.
597  5.96  0.  0.
598  5.97  0.  0.
599  5.98  0.  0.
600  5.99  0.  0.
1                         4.9848970357714E+00  2.3065052005859E-01
1  0.0000000000000E+00  6.6514722618649E-09 -8.4330969207791E-08
2  1.0000000000000E-02  1.4241072527190E-03 -6.4680888054563E-03
3  2.0000000000000E-02  5.6837343425583E-03 -2.5734379203010E-02
4  3.0000000000000E-02  1.2741006011650E-02 -5.7387586894818E-02
5  4.0000000000000E-02  2.2533488756800E-02 -1.0075100133209E-01
6  5.0000000000000E-02  3.4975215152853E-02 -1.5489545917550E-01
7  6.0000000000000E-02  4.9958091034188E-02 -2.1865716746235E-01
8  7.0000000000000E-02  6.7353659268895E-02 -2.9066004431098E-01
9  8.0000000000000E-02  8.7015187208719E-02 -3.6934216066249E-01
10  9.0000000000000E-02  1.0878003886404E-01 -4.5298578989067E-01
11  1.0000000000000E-01  1.3247228755071E-01 -5.3975050452110E-01
12  1.1000000000000E-01  1.5790552028432E-01 -6.2770870203501E-01
13  1.2000000000000E-01  1.8488578164193E-01 -7.1488289585316E-01
14  1.3000000000000E-01  2.1321460223884E-01 -7.9928407395062E-01
15  1.4000000000000E-01  2.4269205542789E-01 -8.7895040677376E-01
16  1.5000000000000E-01  2.7311978535086E-01 -9.5198557860903E-01
17  1.6000000000000E-01  3.0430395006597E-01 -1.0165960224384E+00
18  1.7000000000000E-01  3.3605802513225E-01 -1.0711263575161E+00
19  1.8000000000000E-01  3.6820541572131E-01 -1.1140923610736E+00
20  1.9000000000000E-01  4.0058182899984E-01 -1.1442108501333E+00
21  2.0000000000000E-01  4.3303736311550E-01 -1.1604259055717E+00
22  2.1000000000000E-01  4.6543827453923E-01 -1.1619309373153E+00
23  2.2000000000000E-01  4.9766839166783E-01 -1.1481861656523E+00
24  2.3000000000000E-01  5.2963014935847E-01 -1.1189311777209E+00
25  2.4000000000000E-01  5.6124522632425E-01 -1.0741923087546E+00
26  2.5000000000000E-01  5.9245477493283E-01 -1.0142846929725E+00
27  2.6000000000000E-01  6.2321924077453E-01 -9.3980892735248E-01
28  2.7000000000000E-01  6.5351777725708E-01 -8.5164239111514E-01
29  2.8000000000000E-01  6.8334726829118E-01 -7.5092536274840E-01
30  2.9000000000000E-01  7.1272097970897E-01 -6.3904217299113E-01
31  3.0000000000000E-01  7.4166686726066E-01 -5.1759772459626E-01
32  3.1000000000000E-01  7.7022557572929E-01 -3.8838979619567E-01
33  3.2000000000000E-01  7.9844816975884E-01 -2.5337762659280E-01
34  3.3000000000000E-01  8.2639364229400E-01 -1.1464734584710E-01
35  3.4000000000000E-01  8.5412625097571E-01  2.5625120720068E-02
36  3.5000000000000E-01  8.8171273634073E-01  1.6521300109482E-01
37  3.6000000000000E-01  9.0921947816506E-01  3.0187876714264E-01
38  3.7000000000000E-01  9.3670964772069E-01  4.3341463353652E-01
39  3.8000000000000E-01  9.6424041405130E-01  5.5768272176631E-01
40  3.9000000000000E-01  9.9186026160517E-01  6.7265414998087E-01
41  4.0000000000000E-01  1.0196064747023E+00  7.7644632704903E-01
42  4.1000000000000E-01  1.0475028413895E+00  8.6735776017734E-01
43  4.2000000000000E-01  1.0755576252995E+00  9.4389972914985E-01
44  4.3000000000000E-01  1.1037618492547E+00  1.0048242359864E+00
45  4.4000000000000E-01  1.1320879286186E+00  1.0491477055510E+00
46  4.5000000000000E-01  1.1604886859193E+00  1.0761699891792E+00
47  4.6000000000000E-01  1.1888967711503E+00  1.0854883083519E+00
48  4.7000000000000E-01  1.2172245045377E+00  1.0770058672731E+00
49  4.8000000000000E-01  1.2453641505902E+00  1.0509349602426E+00
50  4.9000000000000E-01  1.2731886240533E+00  1.0077945001788E+00
51  5.0000000000000E-01  1.3005526201488E+00  9.4840199669587E-01
52  5.1000000000000E-01  1.3272941533236E+00  8.7386011390616E-01
53  5.2000000000000E-01  1.3532364808320E+00  7.8553803772345E-01
54  5.3000000000000E-01  1.3781903799721E+00  6.8504797805209E-01
55  5.4000000000000E-01  1.4019567408329E+00  5.7421722108830E-01
56  5.5000000000000E-01  1.4243294301239E+00  4.5505622936688E-01
57  5.6000000000000E-01  1.4450983761647E+00  3.2972336062622E-01
58  5.7000000000000E-01  1.4640528205282E+00  2.0048683966325E-01
59  5.8000000000000E-01  1.4809846782303E+00  6.9684668921826E-02
60  5.9000000000000E-01  1.4956919458379E+00 -6.0316797368581E-02
61  6.0000000000000E-01  1.5079820954477E+00 -1.8716486486353E-01
62  6.1000000000000E-01  1.5176753922372E+00 -3.0856233386684E-01
63  6.2000000000000E-01  1.5246080741823E+00 -4.2230839639730E-01
64  6.3000000000000E-01  1.5286353345922E+00 -5.2633785068691E-01
65  6.4000000000000E-01  1.5296340512774E+00 -6.1875791788402E-01
66  6.5000000000000E-01  1.5275052103969E+00 -6.9788198858048E-01
67  6.6000000000000E-01  1.5221759782518E+00 -7.6225968206667E-01
68  6.7000000000000E-01  1.5136013804058E+00 -8.1070266793759E-01
69  6.8000000000000E-01  1.5017655544181E+00 -8.4230577661323E-01
70  6.9000000000000E-01  1.4866825500305E+00 -8.5646301109703E-01
71  7.0000000000000E-01  1.4683966587395E+00 -8.5287816529316E-01
72  7.1000000000000E-01  1.4469822631371E+00 -8.3156985274173E-01
73  7.2000000000000E-01  1.4225432050797E+00 -7.9287085187822E-01
74  7.3000000000000E-01  1.3952116804711E+00 -7.3742177800377E-01
75  7.4000000000000E-01  1.3651466770702E+00 -6.6615919613603E-01
76  7.5000000000000E-01  1.3325319800839E+00 -5.8029839086137E-01
77  7.6000000000000E-01  1.2975737782334E+00 -4.8131110735133E-01
78  7.7000000000000E-01  1.2604979103336E+00 -3.7089867000213E-01
79  7.8000000000000E-01  1.2215467990599E+00 -2.5096096999552E-01
80  7.9000000000000E-01  1.1809761243712E+00 -1.2356188887819E-01
81  8.0000000000000E-01  1.1390512938994E+00  9.1082093942076E-03
82  8.1000000000000E-01  1.0960437714100E+00  1.4477223182915E-01
83  8.2000000000000E-01  1.0522273271138E+00  2.8110762806907E-01
84  8.3000000000000E-01  1.0078742751100E+00  4.1578842569065E-01
85  8.4000000000000E-01  9.6325176353716E-01  5.4652726086295E-01
86  8.5000000000000E-01  9.1861818209233E-01  6.7111663671061E-01
87  8.6000000000000E-01  8.7421974946130E-01  7.8746865654352E-01
88  8.7000000000000E-01  8.3028733992555E-01  8.9365250785053E-01
89  8.8000000000000E-01  7.8703360403082E-01  9.8792901507104E-01
90  8.9000000000000E-01  7.4465043279874E-01  1.0687816338643E+00
91  9.0000000000000E-01  7.0330680863703E-01  1.1349433258627E+00
92  9.1000000000000E-01  6.6314707897259E-01  1.1854188294738E+00
93  9.2000000000000E-01  6.2428968082785E-01  1.2195019277552E+00
94  9.3000000000000E-01  5.8682633623090E-01  1.2367874071098E+00
95  9.4000000000000E-01  5.5082172964994E-01  1.2371774988009E+00
96  9.5000000000000E-01  5.1631366973568E-01  1.2208826972233E+00
97  9.6000000000000E-01  4.8331372870946E-01  1.1884169525794E+00
98  9.7000000000000E-01  4.5180834391924E-01  1.1405873391408E+00
99  9.8000000000000E-01  4.2176035756425E-01  1.0784784017204E+00
100  9.9000000000000E-01  3.9311096252832E-01  1.0034314803814E+00
101  1.0000000000000E+00  3.6578201480400E-01  9.1701940506600E-01
102  1.0100000000000E+00  3.3967866628674E-01  8.2101703591250E-01
103  1.0200000000000E+00  3.1469226588920E-01  7.1736820006264E-01
104  1.0300000000000E+00  2.9070347208208E-01  6.0814964037144E-01
105  1.0400000000000E+00  2.6758551619996E-01  4.9553264442073E-01
106  1.0500000000000E+00  2.4520755323240E-01  3.8174306262743E-01
107  1.0600000000000E+00  2.2343803539259E-01  2.6902045140711E-01
108  1.0700000000000E+00  2.0214804355356E-01  1.5957709073927E-01
109  1.0800000000000E+00  1.8121451265502E-01  5.5557625003263E-02
110  1.0900000000000E+00  1.6052328940744E-01 -4.0999938436644E-02
111  1.1000000000000E+00  1.3997196398831E-01 -1.2820116622709E-01
112  1.1100000000000E+00  1.1947242189504E-01 -2.0432940574302E-01
113  1.1200000000000E+00  9.8953067584015E-02 -2.6787664848932E-01
114  1.1300000000000E+00  7.8360677888478E-02 -3.1757050099789E-01
115  1.1400000000000E+00  5.7661850349082E-02 -3.5239678767537E-01
116  1.1500000000000E+00  3.6844019359052E-02 -3.7161739191059E-01
117  1.1600000000000E+00  1.5916021290249E-02 -3.7478303042542E-01
118  1.1700000000000E+00 -5.0918016473677E-03 -3.6174074946189E-01
119  1.1800000000000E+00 -2.6127960314005E-02 -3.3263602817755E-01
120  1.1900000000000E+00 -4.7120633052737E-02 -2.8790947300616E-01
121  1.2000000000000E+00 -6.7978919790381E-02 -2.2828818415861E-01
122  1.2100000000000E+00 -8.8594511723271E-02 -1.5477197130344E-01
123  1.2200000000000E+00 -1.0884374475944E-01 -6.8614686372112E-02
124  1.2300000000000E+00 -1.2858999772298E-01  2.8698972554016E-02
125  1.2400000000000E+00 -1.4768638996764E-01  1.3548075410338E-01
126  1.2500000000000E+00 -1.6597872755795E-01  2.4986974140097E-01
127  1.2600000000000E+00 -1.8330864264221E-01  3.6986627284766E-01
128  1.2700000000000E+00 -1.9951686719753E-01  4.9336828511625E-01
129  1.2800000000000E+00 -2.1444657997240E-01  6.1820943002107E-01
130  1.2900000000000E+00 -2.2794676425853E-01  7.4219829155378E-01
131  1.3000000000000E+00 -2.3987551409539E-01  8.6315801647300E-01
132  1.3100000000000E+00 -2.5010322762741E-01  9.7896567120411E-01
133  1.3200000000000E+00 -2.5851562858454E-01  1.0875906494479E+00
134  1.3300000000000E+00 -2.6501656017202E-01  1.1871314782434E+00