Gd    ONCVPSP-4.0.1  r_core=   1.80976   1.50343   1.65444   1.40768
64.0000     18.0000      221106    zatom,zion,pspd
8      11   3     4   600     0    pspcod,pspxc,lmax,lloc,mmax,r2well
5.99000000  0.25000000  0.00000000    rchrg fchrg qchrg
2     2     2     2     0    nproj
1     1           extension_switch
0                         9.2045944646509E+00  7.8407593578744E-01
1  0.0000000000000E+00  1.6349394060811E-10 -5.9012850855966E-10
2  1.0000000000000E-02  3.7450571798732E-02 -5.0175008712814E-03
3  2.0000000000000E-02  7.4902567790391E-02 -1.0093455690373E-02
4  3.0000000000000E-02  1.1235706223699E-01 -1.5285330037053E-02
5  4.0000000000000E-02  1.4981443342931E-01 -2.0648625138647E-02
6  5.0000000000000E-02  1.8727402538578E-01 -2.6235926500796E-02
7  6.0000000000000E-02  2.2473382105554E-01 -3.2095989082749E-02
8  7.0000000000000E-02  2.6219013066646E-01 -3.8272870497693E-02
9  8.0000000000000E-02  2.9963729869546E-01 -4.4805123128555E-02
10  9.0000000000000E-02  3.3706743273749E-01 -5.1725055325535E-02
11  1.0000000000000E-01  3.7447015731330E-01 -5.9058071001946E-02
12  1.1000000000000E-01  4.1183239538755E-01 -6.6822095980054E-02
13  1.2000000000000E-01  4.4913818007001E-01 -7.5027098369997E-02
14  1.3000000000000E-01  4.8636849864813E-01 -8.3674709105622E-02
15  1.4000000000000E-01  5.2350117075141E-01 -9.2757947524850E-02
16  1.5000000000000E-01  5.6051076208172E-01 -1.0226105558441E-01
17  1.6000000000000E-01  5.9736853476226E-01 -1.1215944295473E-01
18  1.7000000000000E-01  6.3404243496602E-01 -1.2241974386699E-01
19  1.8000000000000E-01  6.7049711808604E-01 -1.3299998519793E-01
20  1.9000000000000E-01  7.0669401131031E-01 -1.4384986389525E-01
21  2.0000000000000E-01  7.4259141306579E-01 -1.5491113048474E-01
22  2.1000000000000E-01  7.7814462840635E-01 -1.6611807407704E-01
23  2.2000000000000E-01  8.1330613903955E-01 -1.7739810302204E-01
24  2.3000000000000E-01  8.4802580632401E-01 -1.8867241415994E-01
25  2.4000000000000E-01  8.8225110522477E-01 -1.9985674250403E-01
26  2.5000000000000E-01  9.1592738689340E-01 -2.1086218217532E-01
27  2.6000000000000E-01  9.4899816724585E-01 -2.2159606850718E-01
28  2.7000000000000E-01  9.8140543864754E-01 -2.3196291045923E-01
29  2.8000000000000E-01  1.0130900015844E+00 -2.4186536183615E-01
30  2.9000000000000E-01  1.0439918130040E+00 -2.5120521930500E-01
31  3.0000000000000E-01  1.0740503478527E+00 -2.5988443485387E-01
32  3.1000000000000E-01  1.1032049702190E+00 -2.6780613013693E-01
33  3.2000000000000E-01  1.1313953104126E+00 -2.7487560011301E-01
34  3.3000000000000E-01  1.1585616442761E+00 -2.8100129350499E-01
35  3.4000000000000E-01  1.1846452710286E+00 -2.8609575788681E-01
36  3.5000000000000E-01  1.2095888859912E+00 -2.9007653764011E-01
37  3.6000000000000E-01  1.2333369446262E+00 -2.9286701360904E-01
38  3.7000000000000E-01  1.2558360144557E+00 -2.9439717401334E-01
39  3.8000000000000E-01  1.2770351115835E+00 -2.9460430704721E-01
40  3.9000000000000E-01  1.2968860187478E+00 -2.9343360658554E-01
41  4.0000000000000E-01  1.3153435820661E+00 -2.9083868352668E-01
42  4.1000000000000E-01  1.3323659838944E+00 -2.8678197650980E-01
43  4.2000000000000E-01  1.3479149895152E+00 -2.8123505703919E-01
44  4.3000000000000E-01  1.3619561656822E+00 -2.7417882541251E-01
45  4.4000000000000E-01  1.3744590693816E+00 -2.6560359526644E-01
46  4.5000000000000E-01  1.3853974055186E+00 -2.5550906600595E-01
47  4.6000000000000E-01  1.3947491525968E+00 -2.4390418385106E-01
48  4.7000000000000E-01  1.4024966558219E+00 -2.3080689370091E-01
49  4.8000000000000E-01  1.4086266874328E+00 -2.1624378545938E-01
50  4.9000000000000E-01  1.4131304744212E+00 -2.0024963987034E-01
51  5.0000000000000E-01  1.4160036941655E+00 -1.8286688025604E-01
52  5.1000000000000E-01  1.4172464388474E+00 -1.6414493781975E-01
53  5.2000000000000E-01  1.4168631498494E+00 -1.4413953934933E-01
54  5.3000000000000E-01  1.4148625236467E+00 -1.2291192722285E-01
55  5.4000000000000E-01  1.4112573909908E+00 -1.0052802255760E-01
56  5.5000000000000E-01  1.4060645714456E+00 -7.7057543147396E-02
57  5.6000000000000E-01  1.3993047055680E+00 -5.2573088487126E-02
58  5.7000000000000E-01  1.3910020672227E+00 -2.7149204678762E-02
59  5.8000000000000E-01  1.3811843586885E+00 -8.6144234344496E-04
60  5.9000000000000E-01  1.3698824913384E+00  2.6214579177953E-02
61  6.0000000000000E-01  1.3571303547699E+00  5.4004088068673E-02
62  6.1000000000000E-01  1.3429645773125E+00  8.2434043649158E-02
63  6.2000000000000E-01  1.3274242808564E+00  1.1143397464868E-01
64  6.3000000000000E-01  1.3105508329206E+00  1.4093675995984E-01
65  6.4000000000000E-01  1.2923875988216E+00  1.7087934039881E-01
66  6.5000000000000E-01  1.2729796967051E+00  2.0120335084859E-01
67  6.6000000000000E-01  1.2523737580760E+00  2.3185566316017E-01
68  6.7000000000000E-01  1.2306176963004E+00  2.6278883131962E-01
69  6.8000000000000E-01  1.2077604853621E+00  2.9396143163632E-01
70  6.9000000000000E-01  1.1838519509451E+00  3.2533829206055E-01
71  7.0000000000000E-01  1.1589425756729E+00  3.5689060617412E-01
72  7.1000000000000E-01  1.1330833200803E+00  3.8859592890042E-01
73  7.2000000000000E-01  1.1063254606269E+00  4.2043805252958E-01
74  7.3000000000000E-01  1.0787204457768E+00  4.5240676323130E-01
75  7.4000000000000E-01  1.0503197708860E+00  4.8449747981046E-01
76  7.5000000000000E-01  1.0211748723485E+00  5.1671077803077E-01
77  7.6000000000000E-01  9.9133704116662E-01  5.4905180536734E-01
78  7.7000000000000E-01  9.6085735582976E-01  5.8152959253275E-01
79  7.8000000000000E-01  9.2978663411582E-01  6.1415626953299E-01
80  7.9000000000000E-01  8.9817540317028E-01  6.4694619533347E-01
81  8.0000000000000E-01  8.6607388697779E-01  6.7991501143510E-01
82  8.1000000000000E-01  8.3353201011772E-01  7.1307863076167E-01
83  8.2000000000000E-01  8.0059941649410E-01  7.4645217423197E-01
84  8.3000000000000E-01  7.6732550155266E-01  7.8004886822082E-01
85  8.4000000000000E-01  7.3375945634370E-01  8.1387891679799E-01
86  8.5000000000000E-01  6.9995032166159E-01  8.4794836316458E-01
87  8.6000000000000E-01  6.6594705038918E-01  8.8225795508144E-01
88  8.7000000000000E-01  6.3179857609796E-01  9.1680202930428E-01
89  8.8000000000000E-01  5.9755388590232E-01  9.5156743010361E-01
90  8.9000000000000E-01  5.6326209553671E-01  9.8653247686344E-01
91  9.0000000000000E-01  5.2897252461711E-01  1.0216659955227E+00
92  9.1000000000000E-01  4.9473477005921E-01  1.0569264282598E+00
93  9.2000000000000E-01  4.6059877565493E-01  1.0922610353296E+00
94  9.3000000000000E-01  4.2661489585124E-01  1.1276052023581E+00
95  9.4000000000000E-01  3.9283395182936E-01  1.1628818656957E+00
96  9.5000000000000E-01  3.5930727804466E-01  1.1980010676304E+00
97  9.6000000000000E-01  3.2608675745486E-01  1.2328596523974E+00
98  9.7000000000000E-01  2.9322484373354E-01  1.2673411129834E+00
99  9.8000000000000E-01  2.6077456883543E-01  1.3013155977426E+00
100  9.9000000000000E-01  2.2878953434555E-01  1.3346400848186E+00
101  1.0000000000000E+00  1.9732388510634E-01  1.3671587313135E+00
102  1.0100000000000E+00  1.6643226367191E-01  1.3987034030707E+00
103  1.0200000000000E+00  1.3616974418721E-01  1.4290943898466E+00
104  1.0300000000000E+00  1.0659174433223E-01  1.4581413095385E+00
105  1.0400000000000E+00  7.7753914007635E-02  1.4856442040088E+00
106  1.0500000000000E+00  4.9711999471715E-02  1.5113948278991E+00
107  1.0600000000000E+00  2.2521681671173E-02  1.5351781306408E+00
108  1.0700000000000E+00 -3.7616124542992E-03  1.5567739306416E+00
109  1.0800000000000E+00 -2.9082926867377E-02  1.5759587793230E+00
110  1.0900000000000E+00 -5.3388022638499E-02  1.5925080112938E+00
111  1.1000000000000E+00 -7.6623654483615E-02  1.6061979754242E+00
112  1.1100000000000E+00 -9.8737878534184E-02  1.6168084399132E+00
113  1.1200000000000E+00 -1.1968039207192E-01  1.6241251625588E+00
114  1.1300000000000E+00 -1.3940290573586E-01  1.6279426153232E+00
115  1.1400000000000E+00 -1.5785954841312E-01  1.6280668498539E+00
116  1.1500000000000E+00 -1.7500730464330E-01  1.6243184878452E+00
117  1.1600000000000E+00 -1.9080648388157E-01  1.6165358169194E+00
118  1.1700000000000E+00 -2.0522122036206E-01  1.6045779690152E+00
119  1.1800000000000E+00 -2.1822000156162E-01  1.5883281540226E+00
120  1.1900000000000E+00 -2.2977622236172E-01  1.5676969164979E+00
121  1.2000000000000E+00 -2.3986876093120E-01  1.5426253776978E+00
122  1.2100000000000E+00 -2.4848257106650E-01  1.5130884187137E+00
123  1.2200000000000E+00 -2.5560928422984E-01  1.4790977531953E+00
124  1.2300000000000E+00 -2.6124781276844E-01  1.4407048297976E+00
125  1.2400000000000E+00 -2.6540494377579E-01  1.3980034950684E+00
126  1.2500000000000E+00 -2.6809591074106E-01  1.3511323368962E+00
127  1.2600000000000E+00 -2.6934492747554E-01  1.3002766166502E+00
128  1.2700000000000E+00 -2.6918566581761E-01  1.2456696848325E+00
129  1.2800000000000E+00 -2.6766165523944E-01  1.1875937601558E+00
130  1.2900000000000E+00 -2.6482657868292E-01  1.1263799353628E+00
131  1.3000000000000E+00 -2.6074443473375E-01  1.0624072547868E+00
132  1.3100000000000E+00 -2.5548953154716E-01  9.9610068838502E-01
133  1.3200000000000E+00 -2.4914627272423E-01  9.2792780459048E-01
134  1.3300000000000E+00 -2.4180868959653E-01  8.5839391977273E-01
135  1.3400000000000E+00 -2.3357966808512E-01  7.8803547528897E-01
136  1.3500000000000E+00 -2.2456981133653E-01  7.1741136351112E-01
137  1.3600000000000E+00 -2.1489587178550E-01  6.4709189218628E-01
138  1.3700000000000E+00 -2.0467867799773E-01  5.7764504136725E-01
139  1.3800000000000E+00 -1.9404047268629E-01  5.0961962926462E-01
140  1.3900000000000E+00 -1.8310156806071E-01  4.4352495892729E-01
141  1.4000000000000E+00 -1.7197622328112E-01  3.7980654130551E-01
142  1.4100000000000E+00 -1.6076756074651E-01  3.1881686795896E-01
143  1.4200000000000E+00 -1.4956358153187E-01  2.6079675823903E-01
144  1.4300000000000E+00 -1.3844241611249E-01  2.0592415349887E-01
145  1.4400000000000E+00 -1.2747735770729E-01  1.5435536754083E-01
146  1.4500000000000E+00 -1.1673655161768E-01  1.0622437870274E-01
147  1.4600000000000E+00 -1.0628265666938E-01  6.1641785646909E-02
148  1.4700000000000E+00 -9.6172521114930E-02  2.0693692133273E-02
149  1.4800000000000E+00 -8.6456911919125E-02 -1.6559181257143E-02
150  1.4900000000000E+00 -7.7180301474413E-02 -5.0082140143968E-02
151  1.5000000000000E+00 -6.8380713418517E-02 -7.9866910126239E-02
152  1.5100000000000E+00 -6.0089629388285E-02 -1.0593177396622E-01
153  1.5200000000000E+00 -5.2331957932586E-02 -1.2832144734641E-01
154  1.5300000000000E+00 -4.5126066121980E-02 -1.4710669133294E-01
155  1.5400000000000E+00 -3.8483873723380E-02 -1.6238366251626E-01
156  1.5500000000000E+00 -3.2411009100104E-02 -1.7427300486407E-01
157  1.5600000000000E+00 -2.6907025355978E-02 -1.8291868998181E-01
158  1.5700000000000E+00 -2.1965674540605E-02 -1.8848661553560E-01
159  1.5800000000000E+00 -1.7575237084578E-02 -1.9116297434247E-01
160  1.5900000000000E+00 -1.3718903043938E-02 -1.9115240909108E-01
161  1.6000000000000E+00 -1.0375201105990E-02 -1.8867597039346E-01
162  1.6100000000000E+00 -7.5184707817024E-03 -1.8396889807394E-01
163  1.6200000000000E+00 -5.1193727256820E-03 -1.7727824763746E-01
164  1.6300000000000E+00 -3.1454316581233E-03 -1.6886038587912E-01
165  1.6400000000000E+00 -1.5616059970275E-03 -1.5897838111567E-01
166  1.6500000000000E+00 -3.3087799890487E-04 -1.4789931482410E-01
167  1.6600000000000E+00  5.8514214399204E-04 -1.3589154306904E-01
168  1.6700000000000E+00  1.2256045354613E-03 -1.2322193440904E-01
169  1.6800000000000E+00  1.6298075859230E-03 -1.1015311721457E-01
170  1.6900000000000E+00  1.8365942778649E-03 -9.6940769060398E-02
171  1.7000000000000E+00  1.8837381937199E-03 -8.3830900023954E-02
172  1.7100000000000E+00  1.8074363360450E-03 -7.1057494750262E-02
173  1.7200000000000E+00  1.6415297112815E-03 -5.8839384854381E-02
174  1.7300000000000E+00  1.4144072170243E-03 -4.7369836778206E-02
175  1.7400000000000E+00  1.1526647846514E-03 -3.6827131225677E-02
176  1.7500000000000E+00  8.8294814842070E-04 -2.7379960957862E-02
177  1.7600000000000E+00  6.2731428399988E-04 -1.9172747167590E-02
178  1.7700000000000E+00  4.0330569585030E-04 -1.2325346010662E-02
179  1.7800000000000E+00  2.2363655431325E-04 -6.9328523637859E-03
180  1.7900000000000E+00  9.5655576405099E-05 -3.0527814443515E-03
181  1.8000000000000E+00  2.2528204393683E-05 -7.5309117937718E-04
182  1.8100000000000E+00 -1.5988383041490E-07  5.6682367170687E-06
183  1.8200000000000E+00 -1.4480887925786E-07  5.2401954438105E-06
184  1.83  0. -0.
185  1.84 -0.  0.
186  1.85 -0. -0.
187  1.86  0.  0.
188  1.87  0.  0.
189  1.88  0.  0.
190  1.89  0.  0.
191  1.90  0.  0.
192  1.91  0.  0.
193  1.92  0.  0.
194  1.93  0.  0.
195  1.94  0.  0.
196  1.95  0.  0.
197  1.96  0.  0.
198  1.97  0.  0.
199  1.98  0.  0.
200  1.99  0.  0.
201  2.00  0.  0.
202  2.01  0.  0.
203  2.02  0.  0.
204  2.03  0.  0.
205  2.04  0.  0.
206  2.05  0.  0.
207  2.06  0.  0.
208  2.07  0.  0.
209  2.08  0.  0.
210  2.09  0.  0.
211  2.10  0.  0.
212  2.11  0.  0.
213  2.12  0.  0.
214  2.13  0.  0.
215  2.14  0.  0.
216  2.15  0.  0.
217  2.16  0.  0.
218  2.17  0.  0.
219  2.18  0.  0.
220  2.19  0.  0.
221  2.20  0.  0.
222  2.21  0.  0.
223  2.22  0.  0.
224  2.23  0.  0.
225  2.24  0.  0.
226  2.25  0.  0.
227  2.26  0.  0.
228  2.27  0.  0.
229  2.28  0.  0.
230  2.29  0.  0.
231  2.30  0.  0.
232  2.31  0.  0.
233  2.32  0.  0.
234  2.33  0.  0.
235  2.34  0.  0.
236  2.35  0.  0.
237  2.36  0.  0.
238  2.37  0.  0.
239  2.38  0.  0.
240  2.39  0.  0.
241  2.40  0.  0.
242  2.41  0.  0.
243  2.42  0.  0.
244  2.43  0.  0.
245  2.44  0.  0.
246  2.45  0.  0.
247  2.46  0.  0.
248  2.47  0.  0.
249  2.48  0.  0.
250  2.49  0.  0.
251  2.50  0.  0.
252  2.51  0.  0.
253  2.52  0.  0.
254  2.53  0.  0.
255  2.54  0.  0.
256  2.55  0.  0.
257  2.56  0.  0.
258  2.57  0.  0.
259  2.58  0.  0.
260  2.59  0.  0.
261  2.60  0.  0.
262  2.61  0.  0.
263  2.62  0.  0.
264  2.63  0.  0.
265  2.64  0.  0.
266  2.65  0.  0.
267  2.66  0.  0.
268  2.67  0.  0.
269  2.68  0.  0.
270  2.69  0.  0.
271  2.70  0.  0.
272  2.71  0.  0.
273  2.72  0.  0.
274  2.73  0.  0.
275  2.74  0.  0.
276  2.75  0.  0.
277  2.76  0.  0.
278  2.77  0.  0.
279  2.78  0.  0.
280  2.79  0.  0.
281  2.80  0.  0.
282  2.81  0.  0.
283  2.82  0.  0.
284  2.83  0.  0.
285  2.84  0.  0.
286  2.85  0.  0.
287  2.86  0.  0.
288  2.87  0.  0.
289  2.88  0.  0.
290  2.89  0.  0.
291  2.90  0.  0.
292  2.91  0.  0.
293  2.92  0.  0.
294  2.93  0.  0.
295  2.94  0.  0.
296  2.95  0.  0.
297  2.96  0.  0.
298  2.97  0.  0.
299  2.98  0.  0.
300  2.99  0.  0.
301  3.00  0.  0.
302  3.01  0.  0.
303  3.02  0.  0.
304  3.03  0.  0.
305  3.04  0.  0.
306  3.05  0.  0.
307  3.06  0.  0.
308  3.07  0.  0.
309  3.08  0.  0.
310  3.09  0.  0.
311  3.10  0.  0.
312  3.11  0.  0.
313  3.12  0.  0.
314  3.13  0.  0.
315  3.14  0.  0.
316  3.15  0.  0.
317  3.16  0.  0.
318  3.17  0.  0.
319  3.18  0.  0.
320  3.19  0.  0.
321  3.20  0.  0.
322  3.21  0.  0.
323  3.22  0.  0.
324  3.23  0.  0.
325  3.24  0.  0.
326  3.25  0.  0.
327  3.26  0.  0.
328  3.27  0.  0.
329  3.28  0.  0.
330  3.29  0.  0.
331  3.30  0.  0.
332  3.31  0.  0.
333  3.32  0.  0.
334  3.33  0.  0.
335  3.34  0.  0.
336  3.35  0.  0.
337  3.36  0.  0.
338  3.37  0.  0.
339  3.38  0.  0.
340  3.39  0.  0.
341  3.40  0.  0.
342  3.41  0.  0.
343  3.42  0.  0.
344  3.43  0.  0.
345  3.44  0.  0.
346  3.45  0.  0.
347  3.46  0.  0.
348  3.47  0.  0.
349  3.48  0.  0.
350  3.49  0.  0.
351  3.50  0.  0.
352  3.51  0.  0.
353  3.52  0.  0.
354  3.53  0.  0.
355  3.54  0.  0.
356  3.55  0.  0.
357  3.56  0.  0.
358  3.57  0.  0.
359  3.58  0.  0.
360  3.59  0.  0.
361  3.60  0.  0.
362  3.61  0.  0.
363  3.62  0.  0.
364  3.63  0.  0.
365  3.64  0.  0.
366  3.65  0.  0.
367  3.66  0.  0.
368  3.67  0.  0.
369  3.68  0.  0.
370  3.69  0.  0.
371  3.70  0.  0.
372  3.71  0.  0.
373  3.72  0.  0.
374  3.73  0.  0.
375  3.74  0.  0.
376  3.75  0.  0.
377  3.76  0.  0.
378  3.77  0.  0.
379  3.78  0.  0.
380  3.79  0.  0.
381  3.80  0.  0.
382  3.81  0.  0.
383  3.82  0.  0.
384  3.83  0.  0.
385  3.84  0.  0.
386  3.85  0.  0.
387  3.86  0.  0.
388  3.87  0.  0.
389  3.88  0.  0.
390  3.89  0.  0.
391  3.90  0.  0.
392  3.91  0.  0.
393  3.92  0.  0.
394  3.93  0.  0.
395  3.94  0.  0.
396  3.95  0.  0.
397  3.96  0.  0.
398  3.97  0.  0.
399  3.98  0.  0.
400  3.99  0.  0.
401  4.00  0.  0.
402  4.01  0.  0.
403  4.02  0.  0.
404  4.03  0.  0.
405  4.04  0.  0.
406  4.05  0.  0.
407  4.06  0.  0.
408  4.07  0.  0.
409  4.08  0.  0.
410  4.09  0.  0.
411  4.10  0.  0.
412  4.11  0.  0.
413  4.12  0.  0.
414  4.13  0.  0.
415  4.14  0.  0.
416  4.15  0.  0.
417  4.16  0.  0.
418  4.17  0.  0.
419  4.18  0.  0.
420  4.19  0.  0.
421  4.20  0.  0.
422  4.21  0.  0.
423  4.22  0.  0.
424  4.23  0.  0.
425  4.24  0.  0.
426  4.25  0.  0.
427  4.26  0.  0.
428  4.27  0.  0.
429  4.28  0.  0.
430  4.29  0.  0.
431  4.30  0.  0.
432  4.31  0.  0.
433  4.32  0.  0.
434  4.33  0.  0.
435  4.34  0.  0.
436  4.35  0.  0.
437  4.36  0.  0.
438  4.37  0.  0.
439  4.38  0.  0.
440  4.39  0.  0.
441  4.40  0.  0.
442  4.41  0.  0.
443  4.42  0.  0.
444  4.43  0.  0.
445  4.44  0.  0.
446  4.45  0.  0.
447  4.46  0.  0.
448  4.47  0.  0.
449  4.48  0.  0.
450  4.49  0.  0.
451  4.50  0.  0.
452  4.51  0.  0.
453  4.52  0.  0.
454  4.53  0.  0.
455  4.54  0.  0.
456  4.55  0.  0.
457  4.56  0.  0.
458  4.57  0.  0.
459  4.58  0.  0.
460  4.59  0.  0.
461  4.60  0.  0.
462  4.61  0.  0.
463  4.62  0.  0.
464  4.63  0.  0.
465  4.64  0.  0.
466  4.65  0.  0.
467  4.66  0.  0.
468  4.67  0.  0.
469  4.68  0.  0.
470  4.69  0.  0.
471  4.70  0.  0.
472  4.71  0.  0.
473  4.72  0.  0.
474  4.73  0.  0.
475  4.74  0.  0.
476  4.75  0.  0.
477  4.76  0.  0.
478  4.77  0.  0.
479  4.78  0.  0.
480  4.79  0.  0.
481  4.80  0.  0.
482  4.81  0.  0.
483  4.82  0.  0.
484  4.83  0.  0.
485  4.84  0.  0.
486  4.85  0.  0.
487  4.86  0.  0.
488  4.87  0.  0.
489  4.88  0.  0.
490  4.89  0.  0.
491  4.90  0.  0.
492  4.91  0.  0.
493  4.92  0.  0.
494  4.93  0.  0.
495  4.94  0.  0.
496  4.95  0.  0.
497  4.96  0.  0.
498  4.97  0.  0.
499  4.98  0.  0.
500  4.99  0.  0.
501  5.00  0.  0.
502  5.01  0.  0.
503  5.02  0.  0.
504  5.03  0.  0.
505  5.04  0.  0.
506  5.05  0.  0.
507  5.06  0.  0.
508  5.07  0.  0.
509  5.08  0.  0.
510  5.09  0.  0.
511  5.10  0.  0.
512  5.11  0.  0.
513  5.12  0.  0.
514  5.13  0.  0.
515  5.14  0.  0.
516  5.15  0.  0.
517  5.16  0.  0.
518  5.17  0.  0.
519  5.18  0.  0.
520  5.19  0.  0.
521  5.20  0.  0.
522  5.21  0.  0.
523  5.22  0.  0.
524  5.23  0.  0.
525  5.24  0.  0.
526  5.25  0.  0.
527  5.26  0.  0.
528  5.27  0.  0.
529  5.28  0.  0.
530  5.29  0.  0.
531  5.30  0.  0.
532  5.31  0.  0.
533  5.32  0.  0.
534  5.33  0.  0.
535  5.34  0.  0.
536  5.35  0.  0.
537  5.36  0.  0.
538  5.37  0.  0.
539  5.38  0.  0.
540  5.39  0.  0.
541  5.40  0.  0.
542  5.41  0.  0.
543  5.42  0.  0.
544  5.43  0.  0.
545  5.44  0.  0.
546  5.45  0.  0.
547  5.46  0.  0.
548  5.47  0.  0.
549  5.48  0.  0.
550  5.49  0.  0.
551  5.50  0.  0.
552  5.51  0.  0.
553  5.52  0.  0.
554  5.53  0.  0.
555  5.54  0.  0.
556  5.55  0.  0.
557  5.56  0.  0.
558  5.57  0.  0.
559  5.58  0.  0.
560  5.59  0.  0.
561  5.60  0.  0.
562  5.61  0.  0.
563  5.62  0.  0.
564  5.63  0.  0.
565  5.64  0.  0.
566  5.65  0.  0.
567  5.66  0.  0.
568  5.67  0.  0.
569  5.68  0.  0.
570  5.69  0.  0.
571  5.70  0.  0.
572  5.71  0.  0.
573  5.72  0.  0.
574  5.73  0.  0.
575  5.74  0.  0.
576  5.75  0.  0.
577  5.76  0.  0.
578  5.77  0.  0.
579  5.78  0.  0.
580  5.79  0.  0.
581  5.80  0.  0.
582  5.81  0.  0.
583  5.82  0.  0.
584  5.83  0.  0.
585  5.84  0.  0.
586  5.85  0.  0.
587  5.86  0.  0.
588  5.87  0.  0.
589  5.88  0.  0.
590  5.89  0.  0.
591  5.90  0.  0.
592  5.91  0.  0.
593  5.92  0.  0.
594  5.93  0.  0.
595  5.94  0.  0.
596  5.95  0.  0.
597  5.96  0.  0.
598  5.97  0.  0.
599  5.98  0.  0.
600  5.99  0.  0.
1                         6.7030618863893E+00  5.2291951538658E-01
1  0.0000000000000E+00  1.1041276046231E-08 -5.5856847563929E-08
2  1.0000000000000E-02  1.3073588680691E-03 -2.3926931937830E-03
3  2.0000000000000E-02  5.2154604671955E-03 -9.5079799791925E-03
4  3.0000000000000E-02  1.1682673754372E-02 -2.1158968661227E-02
5  4.0000000000000E-02  2.0640586890161E-02 -3.7039095016355E-02
6  5.0000000000000E-02  3.1995443872136E-02 -5.6729387959045E-02
7  6.0000000000000E-02  4.5630109922507E-02 -7.9708409659589E-02
8  7.0000000000000E-02  6.1406520957227E-02 -1.0536464443699E-01
9  8.0000000000000E-02  7.9168561422597E-02 -1.3301105489377E-01
10  9.0000000000000E-02  9.8745304984301E-02 -1.6190147411301E-01
11  1.0000000000000E-01  1.1995454421267E-01 -1.9124846040319E-01
12  1.1000000000000E-01  1.4260652871495E-01 -2.2024220699977E-01
13  1.2000000000000E-01  1.6650782627236E-01 -2.4807007407764E-01
14  1.3000000000000E-01  1.9146521856047E-01 -2.7393629497005E-01
15  1.4000000000000E-01  2.1728954203648E-01 -2.9708140298877E-01
16  1.5000000000000E-01  2.4379938559518E-01 -3.1680092984628E-01
17  1.6000000000000E-01  2.7082455961028E-01 -3.3246294132217E-01
18  1.7000000000000E-01  2.9820925592926E-01 -3.4352400020123E-01
19  1.8000000000000E-01  3.2581482517639E-01 -3.4954318013777E-01
20  1.9000000000000E-01  3.5352210619515E-01 -3.5019379626195E-01
21  2.0000000000000E-01  3.8123325244909E-01 -3.4527256814582E-01
22  2.1000000000000E-01  4.0887301148222E-01 -3.3470598712317E-01
23  2.2000000000000E-01  4.3638942587433E-01 -3.1855372169782E-01
24  2.3000000000000E-01  4.6375393724236E-01 -2.9700896054339E-01
25  2.4000000000000E-01  4.9096088845124E-01 -2.7039566096792E-01
26  2.5000000000000E-01  5.1802643300535E-01 -2.3916274019522E-01
27  2.6000000000000E-01  5.4498687429037E-01 -2.0387531588017E-01
28  2.7000000000000E-01  5.7189647061977E-01 -1.6520316940373E-01
29  2.8000000000000E-01  5.9882475461245E-01 -1.2390666919802E-01
30  2.9000000000000E-01  6.2585342700493E-01 -8.0820450208852E-02
31  3.0000000000000E-01  6.5307289531792E-01 -3.6835198289766E-02
32  3.1000000000000E-01  6.8057853661621E-01  7.1220663635686E-03
33  3.2000000000000E-01  7.0846677071394E-01  5.0108775729144E-02
34  3.3000000000000E-01  7.3683103541496E-01  9.1188211800433E-02
35  3.4000000000000E-01  7.6575775860711E-01  1.2945103947221E-01
36  3.5000000000000E-01  7.9532242316294E-01  1.6403649094786E-01
37  3.6000000000000E-01  8.2558581959311E-01  1.9415272155930E-01
38  3.7000000000000E-01  8.5659057825665E-01  2.1909587096426E-01
39  3.8000000000000E-01  8.8835806770423E-01  2.3826738819245E-01
40  3.9000000000000E-01  9.2088573851257E-01  2.5118921349818E-01
41  4.0000000000000E-01  9.5414498290101E-01  2.5751645376394E-01
42  4.1000000000000E-01  9.8807956968697E-01  2.5704724040536E-01
43  4.2000000000000E-01  1.0226047019566E+00  2.4972951827489E-01
44  4.3000000000000E-01  1.0576067314537E+00  2.3566457970865E-01
45  4.4000000000000E-01  1.0929435494072E+00  2.1510722821819E-01
46  4.5000000000000E-01  1.1284456586289E+00  1.8846252989605E-01
47  4.6000000000000E-01  1.1639179165452E+00  1.5627918579581E-01
48  4.7000000000000E-01  1.1991419236971E+00  1.1923963372921E-01
49  4.8000000000000E-01  1.2338790175068E+00  7.8147061446466E-02
50  4.9000000000000E-01  1.2678738170670E+00  3.3909583403944E-02
51  5.0000000000000E-01  1.3008582517026E+00 -1.2478101295314E-02
52  5.1000000000000E-01  1.3325559943617E+00 -5.9955193157132E-02
53  5.2000000000000E-01  1.3626872107948E+00 -1.0741699076155E-01
54  5.3000000000000E-01  1.3909735272136E+00 -1.5373833298827E-01
55  5.4000000000000E-01  1.4171431128826E+00 -1.9779778199618E-01
56  5.5000000000000E-01  1.4409357700566E+00 -2.3850202211630E-01
57  5.6000000000000E-01  1.4621079219333E+00 -2.7480993928533E-01
58  5.7000000000000E-01  1.4804373899216E+00 -3.0575584676682E-01
59  5.8000000000000E-01  1.4957278545387E+00 -3.3047133576683E-01
60  5.9000000000000E-01  1.5078128996001E+00 -3.4820525399317E-01
61  6.0000000000000E-01  1.5165595469770E+00 -3.5834135081271E-01
62  6.1000000000000E-01  1.5218711989144E+00 -3.6041317376651E-01
63  6.2000000000000E-01  1.5236899165474E+00 -3.5411585690759E-01
64  6.3000000000000E-01  1.5219979765901E+00 -3.3931450561051E-01
65  6.4000000000000E-01  1.5168186629307E+00 -3.1604895385236E-01
66  6.5000000000000E-01  1.5082162657392E+00 -2.8453474699230E-01
67  6.6000000000000E-01  1.4962952773519E+00 -2.4516028416166E-01
68  6.7000000000000E-01  1.4811987912824E+00 -1.9848013778386E-01
69  6.8000000000000E-01  1.4631061278575E+00 -1.4520465167862E-01
70  6.9000000000000E-01  1.4422297268181E+00 -8.6186001841166E-02
71  7.0000000000000E-01  1.4188113633811E+00 -2.2400983500369E-02
72  7.1000000000000E-01  1.3931177593881E+00  4.5069137306735E-02
73  7.2000000000000E-01  1.3654356749116E+00  1.1506130134554E-01
74  7.3000000000000E-01  1.3360665777478E+00  1.8635539673142E-01
75  7.4000000000000E-01  1.3053209983186E+00  2.5770054572740E-01
76  7.5000000000000E-01  1.2735126853857E+00  3.2784238137025E-01
77  7.6000000000000E-01  1.2409526834654E+00  3.9555072944533E-01
78  7.7000000000000E-01  1.2079434557686E+00  4.5964709568065E-01
79  7.8000000000000E-01  1.1747731767965E+00  5.1903135525317E-01
80  7.9000000000000E-01  1.1417103163657E+00  5.7270705198130E-01
81  8.0000000000000E-01  1.1089986318303E+00  6.1980473782732E-01
82  8.1000000000000E-01  1.0768526777160E+00  6.5960281916763E-01
83  8.2000000000000E-01  1.0454539320032E+00  6.9154542405747E-01
84  8.3000000000000E-01  1.0149476260928E+00  7.1525686349363E-01
85  8.4000000000000E-01  9.8544035130842E-01  7.3055232829828E-01
86  8.5000000000000E-01  9.5699849890853E-01  7.3744454031339E-01
87  8.6000000000000E-01  9.2964757333993E-01  7.3614616052323E-01
88  8.7000000000000E-01  9.0337240021212E-01  7.2706784575872E-01
89  8.8000000000000E-01  8.7811823159869E-01  7.1081193791224E-01
90  8.9000000000000E-01  8.5379273217596E-01  6.8816186314185E-01
91  9.0000000000000E-01  8.3026881079854E-01  6.6006741137443E-01
92  9.1000000000000E-01  8.0738824379319E-01  6.2762615652654E-01
93  9.2000000000000E-01  7.8496601892393E-01  5.9206136329892E-01
94  9.3000000000000E-01  7.6279531301743E-01  5.5469680530536E-01
95  9.4000000000000E-01  7.4065300199312E-01  5.1692898992507E-01
96  9.5000000000000E-01  7.1830558982622E-01  4.8019734607180E-01
97  9.6000000000000E-01  6.9551543306153E-01  4.4595298067792E-01
98  9.7000000000000E-01  6.7204713011326E-01  4.1562664697343E-01
99  9.8000000000000E-01  6.4767393990313E-01  3.9059659173197E-01
100  9.9000000000000E-01  6.2218409251737E-01  3.7215695897271E-01
101  1.0000000000000E+00  5.9538685555805E-01  3.6148742384622E-01
102  1.0100000000000E+00  5.6711822371942E-01  3.5962471258746E-01
103  1.0200000000000E+00  5.3724610576124E-01  3.6743663281673E-01
104  1.0300000000000E+00  5.0567489235385E-01  3.8559919368718E-01
105  1.0400000000000E+00  4.7234930005689E-01  4.1457733824401E-01
106  1.0500000000000E+00  4.3725740070332E-01  4.5460974213012E-01
107  1.0600000000000E+00  4.0043276143492E-01  5.0569805467261E-01
108  1.0700000000000E+00  3.6195563824689E-01  5.6760087199533E-01
109  1.0800000000000E+00  3.2195318473224E-01  6.3983263913225E-01
110  1.0900000000000E+00  2.8059865750697E-01  7.2166758043896E-01
111  1.1000000000000E+00  2.3810961997604E-01  8.1214865768073E-01
112  1.1100000000000E+00  1.9474516642212E-01  9.1010145420835E-01
113  1.1200000000000E+00  1.5080220832233E-01  1.0141527842565E+00
114  1.1300000000000E+00  1.0661088399986E-01  1.1227537301955E+00
115  1.1400000000000E+00  6.2529170783515E-02  1.2342067195585E+00
116  1.1500000000000E+00  1.8936795416888E-02  1.3466961696292E+00
117  1.1600000000000E+00 -2.3771446770838E-02  1.4583221517955E+00
118  1.1700000000000E+00 -6.5192840751466E-02  1.5671364622371E+00
119  1.1800000000000E+00 -1.0492423522325E-01  1.6711804309792E+00
120  1.1900000000000E+00 -1.4256971921637E-01  1.7685237587075E+00
121  1.2000000000000E+00 -1.7774834534050E-01  1.8573036408806E+00
122  1.2100000000000E+00 -2.1010175064857E-01  1.9357634216773E+00
123  1.2200000000000E+00 -2.3930152632793E-01  2.0022900164793E+00
124  1.2300000000000E+00 -2.6505619034322E-01  2.0554493505829E+00
125  1.2400000000000E+00 -2.8711762262942E-01  2.0940190832091E+00
126  1.2500000000000E+00 -3.0528683027240E-01  2.1170179186694E+00
127  1.2600000000000E+00 -3.1941892020022E-01  2.1237308501643E+00
128  1.2700000000000E+00 -3.2942716882097E-01  2.1137297341818E+00
129  1.2800000000000E+00 -3.3528609158875E-01  2.0868886538355E+00
130  1.2900000000000E+00 -3.3703343029658E-01  2.0433935960049E+00
131  1.3000000000000E+00 -3.3477099149624E-01  1.9837460374839E+00
132  1.3100000000000E+00 -3.2866428551702E-01  1.9087601079551E+00
133  1.3200000000000E+00 -3.1894093167262E-01  1.8195530704266E+00
134  1.3300000000000E+00 -3.0588781086081E-01  1.7175289301605E+00
135  1.3400000000000E+00 -2.8984696146058E-01  1.6043550490898E+00
136  1.3500000000000E+00 -2.7121022788630E-01  1.4819317025859E+00
137  1.3600000000000E+00 -2.5041268269109E-01  1.3523545660275E+00
138  1.3700000000000E+00 -2.2792485248292E-01  1.2178701586684E+00
139  1.3800000000000E+00 -2.0424378460923E-01  1.0808242993858E+00
140  1.3900000000000E+00 -1.7988299500639E-01  9.4360363795032E-01
141  1.4000000000000E+00 -1.5536134427800E-01  8.0857040459289E-01
142  1.4100000000000E+00 -1.3119082919261E-01  6.7798978797027E-01
143  1.4200000000000E+00 -1.0786483325397E-01  5.5396949765343E-01
144  1.4300000000000E+00 -8.5852495415033E-02  4.3848038302290E-01
145  1.4400000000000E+00 -6.5592663622767E-02  3.3336629343900E-01
146  1.4500000000000E+00 -4.7491066051293E-02  2.4032559058692E-01
147  1.4600000000000E+00 -3.1911314021924E-02  1.6087255400175E-01
148  1.4700000000000E+00 -1.9166113772509E-02  9.6300229011965E-02
149  1.4800000000000E+00 -9.5153614253796E-03  4.7671976411073E-02