Gd    ONCVPSP-4.0.1  r_core=   2.00348   1.60569   1.90986   1.35805
64.0000     18.0000      241015    zatom,zion,pspd
8      11   3     4   600     0    pspcod,pspxc,lmax,lloc,mmax,r2well
5.99000000  4.00000000  0.00000000    rchrg fchrg qchrg
3     2     2     2     0    nproj
1     1           extension_switch
0                         1.2607810400766E+01  2.8571005647867E+00  5.5936437500394E-01
1  0.0000000000000E+00 -1.0112681247954E-09  2.3434890972229E-09 -3.4008831861776E-09
2  1.0000000000000E-02  5.4006755176739E-02 -3.1591353150216E-02  4.8210677144781E-02
3  2.0000000000000E-02  1.0783874238735E-01 -6.2822987192264E-02  9.5881939933739E-02
4  3.0000000000000E-02  1.6132294056329E-01 -9.3339415221095E-02  1.4248080275250E-01
5  4.0000000000000E-02  2.1428980085309E-01 -1.2279356352929E-01  1.8748706150925E-01
6  5.0000000000000E-02  2.6657492904561E-01 -1.5085085078711E-01  2.3039949536940E-01
7  6.0000000000000E-02  3.1802070429688E-01 -1.7719311600111E-01  2.7074184409654E-01
8  7.0000000000000E-02  3.6847781412904E-01 -2.0152234762597E-01  3.0806849023750E-01
9  8.0000000000000E-02  4.1780668668132E-01 -2.2356416854774E-01  3.4196977878998E-01
10  9.0000000000000E-02  4.6587880243561E-01 -2.4307103453739E-01  3.7207691117343E-01
11  1.0000000000000E-01  5.1257786909839E-01 -2.5982510715692E-01  3.9806635523823E-01
12  1.1000000000000E-01  5.5780084497964E-01 -2.7364076595015E-01  4.1966371864222E-01
13  1.2000000000000E-01  6.0145879804944E-01 -2.8436672902050E-01  4.3664703913443E-01
14  1.3000000000000E-01  6.4347758985281E-01 -2.9188775574483E-01  4.4884945204706E-01
15  1.4000000000000E-01  6.8379837559840E-01 -2.9612591033521E-01  4.5616120252684E-01
16  1.5000000000000E-01  7.2237791398518E-01 -2.9704137019264E-01  4.5853097766473E-01
17  1.6000000000000E-01  7.5918868266328E-01 -2.9463276842850E-01  4.5596654161284E-01
18  1.7000000000000E-01  7.9421879761658E-01 -2.8893706550609E-01  4.4853466492831E-01
19  1.8000000000000E-01  8.2747173717512E-01 -2.8002895060688E-01  4.3636034765904E-01
20  1.9000000000000E-01  8.5896587378794E-01 -2.6801977899224E-01  4.1962534399456E-01
21  2.0000000000000E-01  8.8873381908076E-01 -2.5305605723978E-01  3.9856600454765E-01
22  2.1000000000000E-01  9.1682159006222E-01 -2.3531749372738E-01  3.7347046042248E-01
23  2.2000000000000E-01  9.4328760659542E-01 -2.1501463704119E-01  3.4467518105838E-01
24  2.3000000000000E-01  9.6820153239426E-01 -1.9238613004493E-01  3.1256094533527E-01
25  2.4000000000000E-01  9.9164297380767E-01 -1.6769561209588E-01  2.7754827248929E-01
26  2.5000000000000E-01  1.0137000524958E+00 -1.4122830627768E-01  2.4009236593862E-01
27  2.6000000000000E-01  1.0344678697572E+00 -1.1328733248517E-01  2.0067762907969E-01
28  2.7000000000000E-01  1.0540468817139E+00 -8.4189790690753E-02  1.5981181740714E-01
29  2.8000000000000E-01  1.0725412057803E+00 -5.4262661704525E-02  1.1801989587609E-01
30  2.9000000000000E-01  1.0900568798250E+00 -2.3838575172803E-02  7.5837674206451E-02
31  3.0000000000000E-01  1.1067000961508E+00  6.7485035968470E-03  3.3805295766229E-02
32  3.1000000000000E-01  1.1225754328803E+00  3.7167615155990E-02 -7.5393422581225E-03
33  3.2000000000000E-01  1.1377841055096E+00  6.7095122346692E-02 -4.7667158537664E-02
34  3.3000000000000E-01  1.1524222612977E+00  9.6218948242164E-02 -8.6064368021610E-02
35  3.4000000000000E-01  1.1665793387805E+00  1.2424268287124E-01 -1.2223879469955E-01
36  3.5000000000000E-01  1.1803365140408E+00  1.5088950732102E-01 -1.5572593993646E-01
37  3.6000000000000E-01  1.1937652544371E+00  1.7590588576103E-01 -1.8609473216629E-01
38  3.7000000000000E-01  1.2069259993050E+00  1.9906497849117E-01 -2.1295288717927E-01
39  3.8000000000000E-01  1.2198669856963E+00  2.2016973226537E-01 -2.3595181255912E-01
40  3.9000000000000E-01  1.2326232355487E+00  2.3905560783584E-01 -2.5479099495392E-01
41  4.0000000000000E-01  1.2452157187773E+00  2.5559290887820E-01 -2.6922181477229E-01
42  4.1000000000000E-01  1.2576507046920E+00  2.6968868112657E-01 -2.7905073948921E-01
43  4.2000000000000E-01  1.2699193118783E+00  2.8128815563654E-01 -2.8414185397772E-01
44  4.3000000000000E-01  1.2819972642725E+00  2.9037571552933E-01 -2.8441869405174E-01
45  4.4000000000000E-01  1.2938448586359E+00  2.9697537129779E-01 -2.7986535763617E-01
46  4.5000000000000E-01  1.3054071460212E+00  3.0115073570198E-01 -2.7052687656986E-01
47  4.6000000000000E-01  1.3166143271576E+00  3.0300449537840E-01 -2.5650884089807E-01
48  4.7000000000000E-01  1.3273823589932E+00  3.0267738245851E-01 -2.3797627651645E-01
49  4.8000000000000E-01  1.3376137669559E+00  3.0034665566532E-01 -2.1515178608507E-01
50  4.9000000000000E-01  1.3471986548651E+00  2.9622410644959E-01 -1.8831297212019E-01
51  5.0000000000000E-01  1.3560159018717E+00  2.9055361167099E-01 -1.5778916999471E-01
52  5.1000000000000E-01  1.3639345333661E+00  2.8360826003982E-01 -1.2395752711409E-01
53  5.2000000000000E-01  1.3708152504979E+00  2.7568708494961E-01 -8.7238472690298E-02
54  5.3000000000000E-01  1.3765121008288E+00  2.6711144136696E-01 -4.8090630192805E-02
55  5.4000000000000E-01  1.3808742707244E+00  2.5822106904673E-01 -7.0052316281278E-03
56  5.5000000000000E-01  1.3837479784004E+00  2.4936988844339E-01  3.5499900807613E-02
57  5.6000000000000E-01  1.3849784451057E+00  2.4092157923284E-01  7.8886734536368E-02
58  5.7000000000000E-01  1.3844119207647E+00  2.3324499430251E-01  1.2260369191128E-01
59  5.8000000000000E-01  1.3818977395312E+00  2.2670946436240E-01  1.6609252120155E-01
60  5.9000000000000E-01  1.3772903801442E+00  2.2168004994583E-01  2.0879529049550E-01
61  6.0000000000000E-01  1.3704515057275E+00  2.1851279847968E-01  2.5016141985233E-01
62  6.1000000000000E-01  1.3612519577501E+00  2.1755006429300E-01  2.8965466615070E-01
63  6.2000000000000E-01  1.3495736792580E+00  2.1911594889428E-01  3.2675997525228E-01
64  6.3000000000000E-01  1.3353115432086E+00  2.2351191758371E-01  3.6099011732171E-01
65  6.4000000000000E-01  1.3183750627658E+00  2.3101264649035E-01  3.9189202341515E-01
66  6.5000000000000E-01  1.2986899617509E+00  2.4186215145168E-01  4.1905274474744E-01
67  6.6000000000000E-01  1.2761995850602E+00  2.5627024682960E-01  4.4210496032202E-01
68  6.7000000000000E-01  1.2508661307507E+00  2.7440937840426E-01  4.6073196383099E-01
69  6.8000000000000E-01  1.2226716876243E+00  2.9641186997190E-01  4.7467206682039E-01
70  6.9000000000000E-01  1.1916190644923E+00  3.2236761824126E-01  4.8372236200876E-01
71  7.0000000000000E-01  1.1577323998350E+00  3.5232226514590E-01  4.8774179825151E-01
72  7.1000000000000E-01  1.1210575432627E+00  3.8627587083435E-01  4.8665352687078E-01
73  7.2000000000000E-01  1.0816622029917E+00  4.2418210445032E-01  4.8044648780526E-01
74  7.3000000000000E-01  1.0396358564397E+00  4.6594796344009E-01  4.6917621318646E-01
75  7.4000000000000E-01  9.9508942397223E-01  5.1143402563247E-01  4.5296483536391E-01
76  7.5000000000000E-01  9.4815470876960E-01  5.6045523178248E-01  4.3200029600998E-01
77  7.6000000000000E-01  8.9898360867398E-01  6.1278218978043E-01  4.0653476255651E-01
78  7.7000000000000E-01  8.4774710869575E-01  6.6814298535729E-01  3.7688226777417E-01
79  7.8000000000000E-01  7.9463406555441E-01  7.2622547797855E-01  3.4341559764131E-01
80  7.9000000000000E-01  7.3984979817425E-01  7.8668005477757E-01  3.0656246166767E-01
81  8.0000000000000E-01  6.8361450040495E-01  8.4912280993058E-01  2.6680098840229E-01
82  8.1000000000000E-01  6.2616149436574E-01  9.1313911188034E-01  2.2465459687495E-01
83  8.2000000000000E-01  5.6773534468356E-01  9.7828751635243E-01  1.8068630207863E-01
84  8.3000000000000E-01  5.0858985548653E-01  1.0441039792314E+00  1.3549251921587E-01
85  8.4000000000000E-01  4.4898597330312E-01  1.1101063201234E+00  8.9696437224598E-02
86  8.5000000000000E-01  3.8918961998188E-01  1.1757988848763E+00  4.3941036991020E-02
87  8.6000000000000E-01  3.2946948037964E-01  1.2406773534805E+00 -1.1181663881815E-03
88  8.7000000000000E-01  2.7009476985597E-01  1.3042336386509E+00 -4.4820574964622E-02
89  8.8000000000000E-01  2.1133300655463E-01  1.3659608200193E+00 -8.6508068637591E-02
90  8.9000000000000E-01  1.5344781305696E-01  1.4253580592144E+00 -1.2553258996573E-01
91  9.0000000000000E-01  9.6696771260800E-02  1.4819354421813E+00 -1.6126366793472E-01
92  9.1000000000000E-01  4.1329353286594E-02  1.5352186968575E+00 -1.9309579658016E-01
93  9.2000000000000E-01 -1.2415050137288E-02  1.5847537367317E+00 -2.2045558636223E-01
94  9.3000000000000E-01 -6.4308983988235E-02  1.6301109838339E+00 -2.4280860909184E-01
95  9.4000000000000E-01 -1.1413864801479E-01  1.6708894282551E+00 -2.5966586093108E-01
96  9.5000000000000E-01 -1.6170546469737E-01  1.7067203853248E+00 -2.7058977247145E-01
97  9.6000000000000E-01 -2.0682748251569E-01  1.7372709159965E+00 -2.7519970003830E-01
98  9.7000000000000E-01 -2.4934060334024E-01  1.7622468807198E+00 -2.7317683808568E-01
99  9.8000000000000E-01 -2.8909962526352E-01  1.7813956020284E+00 -2.6426849872549E-01
100  9.9000000000000E-01 -3.2597909473736E-01  1.7945081161506E+00 -2.4829171098429E-01
101  1.0000000000000E+00 -3.5987396443528E-01  1.8014209990587E+00 -2.2513609918279E-01
102  1.0100000000000E+00 -3.9070005577011E-01  1.8020177574188E+00 -1.9476600679170E-01
103  1.0200000000000E+00 -4.1839432742052E-01  1.7962297797949E+00 -1.5722183913032E-01
104  1.0300000000000E+00 -4.4291495351097E-01  1.7840368481068E+00 -1.1262060524865E-01
105  1.0400000000000E+00 -4.6424121720893E-01  1.7654672136694E+00 -6.1155646200118E-02
106  1.0500000000000E+00 -4.8237322740745E-01  1.7405972460565E+00 -3.0955435838704E-03
107  1.0600000000000E+00 -4.9733146782255E-01  1.7095506665011E+00  6.1217791307980E-02
108  1.0700000000000E+00 -5.0915618921911E-01  1.6724973804888E+00  1.3137184121108E-01
109  1.0800000000000E+00 -5.1790665656508E-01  1.6296519266074E+00  2.0688700702222E-01
110  1.0900000000000E+00 -5.2366026368671E-01  1.5812715605482E+00  2.8722091418613E-01
111  1.1000000000000E+00 -5.2651152844630E-01  1.5276539944286E+00  3.7177347767559E-01
112  1.1100000000000E+00 -5.2657098159055E-01  1.4691348123295E+00  4.5989269648750E-01
113  1.1200000000000E+00 -5.2396396223170E-01  1.4060845831671E+00  5.5088114314797E-01
114  1.1300000000000E+00 -5.1882933244285E-01  1.3389056918094E+00  6.4400310811264E-01
115  1.1400000000000E+00 -5.1131812270487E-01  1.2680289087969E+00  7.3849235295822E-01
116  1.1500000000000E+00 -5.0159211897782E-01  1.1939097182583E+00  8.3356041966590E-01
117  1.1600000000000E+00 -4.8982240103600E-01  1.1170244227729E+00  9.2840543578896E-01
118  1.1700000000000E+00 -4.7618784047031E-01  1.0378660431964E+00  1.0222213465720E+00
119  1.1800000000000E+00 -4.6087356550762E-01  9.5694003105878E-01  1.1142074947526E+00
120  1.1900000000000E+00 -4.4406939861027E-01  8.7475981129387E-01  1.2035784563756E+00
121  1.2000000000000E+00 -4.2596827181888E-01  7.9184217404985E-01  1.2895740261168E+00
122  1.2100000000000E+00 -4.0676462410135E-01  7.0870253649169E-01  1.3714692275735E+00
123  1.2200000000000E+00 -3.8665278471856E-01  6.2585009914584E-01  1.4485842025161E+00
124  1.2300000000000E+00 -3.6582534696372E-01  5.4378292690790E-01  1.5202938071258E+00
125  1.2400000000000E+00 -3.4447153775856E-01  4.6298299271950E-01  1.5860367124008E+00
126  1.2500000000000E+00 -3.2277559067082E-01  3.8391123257103E-01  1.6453237693822E+00
127  1.2600000000000E+00 -3.0091513320345E-01  3.0700267455293E-01  1.6977453564382E+00
128  1.2700000000000E+00 -2.7905960387987E-01  2.3266172252489E-01  1.7429773752585E+00
129  1.2800000000000E+00 -2.5736872099703E-01  1.6125769735644E-01  1.7807855029974E+00
130  1.2900000000000E+00 -2.3599103324307E-01  9.3120766339767E-02  1.8110272390626E+00
131  1.3000000000000E+00 -2.1506259291054E-01  2.8538424787414E-02  1.8336512057579E+00
132  1.3100000000000E+00 -1.9470580555513E-01 -3.2247266049436E-02  1.8486930707019E+00
133  1.3200000000000E+00 -1.7502852606259E-01 -8.9041432789308E-02  1.8562673541233E+00
134  1.3300000000000E+00 -1.5612349050623E-01 -1.4169682730272E-01  1.8565542648701E+00
135  1.3400000000000E+00 -1.3806819636768E-01 -1.9011257364057E-01  1.8497805689674E+00
136  1.3500000000000E+00 -1.2092537012589E-01 -2.3423077822955E-01  1.8361933844402E+00
137  1.3600000000000E+00 -1.0474419967309E-01 -2.7403044371050E-01  1.8160253390251E+00
138  1.3700000000000E+00 -8.9562148243218E-02 -3.0951961212882E-01  1.7894649857847E+00
139  1.3800000000000E+00 -7.5405261070084E-02 -3.4073428465156E-01  1.7567030963267E+00
140  1.3900000000000E+00 -6.2287950283720E-02 -3.6774007811205E-01  1.7179784025379E+00
141  1.4000000000000E+00 -5.0213709805578E-02 -3.9063041382586E-01  1.6735758845821E+00
142  1.4100000000000E+00 -3.9175936155143E-02 -4.0952438156570E-01  1.6238233300622E+00
143  1.4200000000000E+00 -2.9158813491342E-02 -4.2456442197660E-01  1.5690873080094E+00
144  1.4300000000000E+00 -2.0138244604701E-02 -4.3591387627589E-01  1.5097688707659E+00
145  1.4400000000000E+00 -1.2082813392734E-02 -4.4375443816596E-01  1.4462990389015E+00
146  1.4500000000000E+00 -4.9547649313530E-03 -4.4828354117852E-01  1.3791341166205E+00
147  1.4600000000000E+00  1.2890104656710E-03 -4.4971171455938E-01  1.3087508910320E+00
148  1.4700000000000E+00  6.6960022400485E-03 -4.4825993984318E-01  1.2356417684467E+00
149  1.4800000000000E+00  1.1317125935165E-02 -4.4415703887766E-01  1.1603098997967E+00
150  1.4900000000000E+00  1.5205802301986E-02 -4.3763712230205E-01  1.0832643456379E+00
151  1.5000000000000E+00  1.8417079570362E-02 -4.2893712548803E-01  1.0050153294132E+00
152  1.5100000000000E+00  2.1006808140007E-02 -4.1829445653082E-01  9.2606962464900E-01
153  1.5200000000000E+00  2.3030875737874E-02 -4.0594477835066E-01  8.4692611900412E-01
154  1.5300000000000E+00  2.4544509786298E-02 -3.9211994415339E-01  7.6807159451220E-01
155  1.5400000000000E+00  2.5601652385926E-02 -3.7704610257776E-01  6.8997675962327E-01
156  1.5500000000000E+00  2.6254411929602E-02 -3.6094198576671E-01  6.1309256440248E-01
157  1.5600000000000E+00  2.6552594005468E-02 -3.4401739057842E-01  5.3784682627953E-01
158  1.5700000000000E+00  2.6543312863053E-02 -3.2647185997334E-01  4.6464118900596E-01
159  1.5800000000000E+00  2.6270683380964E-02 -3.0849356853225E-01  3.9384843298504E-01
160  1.5900000000000E+00  2.5775592219894E-02 -2.9025841313064E-01  3.2581015081095E-01
161  1.6000000000000E+00  2.5095545613146E-02 -2.7192930682844E-01  2.6083479701463E-01
162  1.6100000000000E+00  2.4264590139588E-02 -2.5365567134323E-01  1.9919611670136E-01
163  1.6200000000000E+00  2.3313301821461E-02 -2.3557312097878E-01  1.4113195357642E-01
164  1.6300000000000E+00  2.2268837974123E-02 -2.1780332851168E-01  8.6843433527219E-02
165  1.6400000000000E+00  2.1155045475571E-02 -2.0045406151759E-01  3.6494516193315E-02
166  1.6500000000000E+00  1.9992618500051E-02 -1.8361937586318E-01 -9.7880965789275E-03
167  1.6600000000000E+00  1.8799298156318E-02 -1.6737995125243E-01 -5.1914710756131E-02
168  1.6700000000000E+00  1.7590106595073E-02 -1.5180355396926E-01 -8.9832062760436E-02
169  1.6800000000000E+00  1.6377606828774E-02 -1.3694560761984E-01 -1.2352244142494E-01
170  1.6900000000000E+00  1.5172180973559E-02 -1.2284985678401E-01 -1.5300252465487E-01
171  1.7000000000000E+00  1.3982318722118E-02 -1.0954910517082E-01 -1.7832195680064E-01
172  1.7100000000000E+00  1.2814907869615E-02 -9.7066009251722E-02 -1.9956169606054E-01
173  1.7200000000000E+00  1.1675520054432E-02 -8.5413911695459E-02 -2.1683215352991E-01
174  1.7300000000000E+00  1.0568684479903E-02 -7.4597696839279E-02 -2.3027115390442E-01
175  1.7400000000000E+00  9.4981433392700E-03 -6.4614652423293E-02 -2.4004174478719E-01
176  1.7500000000000E+00  8.4670832682153E-03 -5.5455322643600E-02 -2.4632988219096E-01
177  1.7600000000000E+00  7.4783379170566E-03 -4.7104338869775E-02 -2.4934201936646E-01
178  1.7700000000000E+00  6.5345575226819E-03 -3.9541215696749E-02 -2.4930262567747E-01
179  1.7800000000000E+00  5.6383422618421E-03 -3.2741101650558E-02 -2.4645166107934E-01
180  1.7900000000000E+00  4.7923370699614E-03 -2.6675475526262E-02 -2.4104203060375E-01
181  1.8000000000000E+00  3.9992865023130E-03 -2.1312780989945E-02 -2.3333704208139E-01
182  1.8100000000000E+00  3.2620491699887E-03 -1.6618993951629E-02 -2.2360788853172E-01
183  1.8200000000000E+00  2.5835721378226E-03 -1.2558118851221E-02 -2.1213117531197E-01
184  1.8300000000000E+00  1.9668266004938E-03 -9.0926119103925E-03 -1.9918650995450E-01
185  1.8400000000000E+00  1.4147069240956E-03 -6.1837309446845E-03 -1.8505417111644E-01
186  1.8500000000000E+00  9.2989590325911E-04 -3.7918129247010E-03 -1.7001287121767E-01
187  1.8600000000000E+00  5.1469980895717E-04 -1.8764820631053E-03 -1.5433762522972E-01
188  1.8700000000000E+00  1.7087787952053E-04 -3.9683481654206E-04 -1.3829768679477E-01
189  1.8800000000000E+00 -1.0073110504204E-04  6.8881015758954E-04 -1.2215505003672E-01
190  1.8900000000000E+00 -2.9997284474451E-04  1.4219252267808E-03 -1.0616157126002E-01
191  1.9000000000000E+00 -4.2815672387695E-04  1.8449003029070E-03 -9.0558652487777E-02
192  1.9100000000000E+00 -4.9787440629665E-04  2.0208931352067E-03 -7.5598982580423E-02
193  1.9200000000000E+00 -5.3777232113476E-04  2.0433269701391E-03 -6.1556252920593E-02
194  1.9300000000000E+00 -5.4511237167893E-04  1.9374806713434E-03 -4.8608445400857E-02
195  1.9400000000000E+00 -5.1716144362086E-04  1.7248947359346E-03 -3.6912178654859E-02
196  1.9500000000000E+00 -4.5587528847238E-04  1.4327463449658E-03 -2.6612662937765E-02
197  1.9600000000000E+00 -3.6710124457902E-04  1.0919588553829E-03 -1.7840598335953E-02
198  1.9700000000000E+00 -2.6099249025388E-04  7.3787415937794E-04 -1.0713678406335E-02
199  1.9800000000000E+00 -1.5172163046318E-04  4.0937288395615E-04 -5.3264617514834E-03
200  1.9900000000000E+00 -5.8212643465010E-05  1.5046368848678E-04 -1.7643717890182E-03
201  2.0000000000000E+00 -7.4143581257158E-06  1.8278589196900E-05 -1.8575199330539E-04
202  2.0100000000000E+00  2.3442555080482E-06 -5.7747515509706E-06  6.1934012604181E-05
203  2.0200000000000E+00 -7.2327558252289E-07  1.8175961009915E-06 -2.0271116319688E-05
204  2.03  0. -0.  0.
205  2.04  0. -0.  0.
206  2.05  0. -0.  0.
207  2.06  0.  0.  0.
208  2.07  0.  0.  0.
209  2.08  0.  0.  0.
210  2.09  0.  0.  0.
211  2.10  0.  0.  0.
212  2.11  0.  0.  0.
213  2.12  0.  0.  0.
214  2.13  0.  0.  0.
215  2.14  0.  0.  0.
216  2.15  0.  0.  0.
217  2.16  0.  0.  0.
218  2.17  0.  0.  0.
219  2.18  0.  0.  0.
220  2.19  0.  0.  0.
221  2.20  0.  0.  0.
222  2.21  0.  0.  0.
223  2.22  0.  0.  0.
224  2.23  0.  0.  0.
225  2.24  0.  0.  0.
226  2.25  0.  0.  0.
227  2.26  0.  0.  0.
228  2.27  0.  0.  0.
229  2.28  0.  0.  0.
230  2.29  0.  0.  0.
231  2.30  0.  0.  0.
232  2.31  0.  0.  0.
233  2.32  0.  0.  0.
234  2.33  0.  0.  0.
235  2.34  0.  0.  0.
236  2.35  0.  0.  0.
237  2.36  0.  0.  0.
238  2.37  0.  0.  0.
239  2.38  0.  0.  0.
240  2.39  0.  0.  0.
241  2.40  0.  0.  0.
242  2.41  0.  0.  0.
243  2.42  0.  0.  0.
244  2.43  0.  0.  0.
245  2.44  0.  0.  0.
246  2.45  0.  0.  0.
247  2.46  0.  0.  0.
248  2.47  0.  0.  0.
249  2.48  0.  0.  0.
250  2.49  0.  0.  0.
251  2.50  0.  0.  0.
252  2.51  0.  0.  0.
253  2.52  0.  0.  0.
254  2.53  0.  0.  0.
255  2.54  0.  0.  0.
256  2.55  0.  0.  0.
257  2.56  0.  0.  0.
258  2.57  0.  0.  0.
259  2.58  0.  0.  0.
260  2.59  0.  0.  0.
261  2.60  0.  0.  0.
262  2.61  0.  0.  0.
263  2.62  0.  0.  0.
264  2.63  0.  0.  0.
265  2.64  0.  0.  0.
266  2.65  0.  0.  0.
267  2.66  0.  0.  0.
268  2.67  0.  0.  0.
269  2.68  0.  0.  0.
270  2.69  0.  0.  0.
271  2.70  0.  0.  0.
272  2.71  0.  0.  0.
273  2.72  0.  0.  0.
274  2.73  0.  0.  0.
275  2.74  0.  0.  0.
276  2.75  0.  0.  0.
277  2.76  0.  0.  0.
278  2.77  0.  0.  0.
279  2.78  0.  0.  0.
280  2.79  0.  0.  0.
281  2.80  0.  0.  0.
282  2.81  0.  0.  0.
283  2.82  0.  0.  0.
284  2.83  0.  0.  0.
285  2.84  0.  0.  0.
286  2.85  0.  0.  0.
287  2.86  0.  0.  0.
288  2.87  0.  0.  0.
289  2.88  0.  0.  0.
290  2.89  0.  0.  0.
291  2.90  0.  0.  0.
292  2.91  0.  0.  0.
293  2.92  0.  0.  0.
294  2.93  0.  0.  0.
295  2.94  0.  0.  0.
296  2.95  0.  0.  0.
297  2.96  0.  0.  0.
298  2.97  0.  0.  0.
299  2.98  0.  0.  0.
300  2.99  0.  0.  0.
301  3.00  0.  0.  0.
302  3.01  0.  0.  0.
303  3.02  0.  0.  0.
304  3.03  0.  0.  0.
305  3.04  0.  0.  0.
306  3.05  0.  0.  0.
307  3.06  0.  0.  0.
308  3.07  0.  0.  0.
309  3.08  0.  0.  0.
310  3.09  0.  0.  0.
311  3.10  0.  0.  0.
312  3.11  0.  0.  0.
313  3.12  0.  0.  0.
314  3.13  0.  0.  0.
315  3.14  0.  0.  0.
316  3.15  0.  0.  0.
317  3.16  0.  0.  0.
318  3.17  0.  0.  0.
319  3.18  0.  0.  0.
320  3.19  0.  0.  0.
321  3.20  0.  0.  0.
322  3.21  0.  0.  0.
323  3.22  0.  0.  0.
324  3.23  0.  0.  0.
325  3.24  0.  0.  0.
326  3.25  0.  0.  0.
327  3.26  0.  0.  0.
328  3.27  0.  0.  0.
329  3.28  0.  0.  0.
330  3.29  0.  0.  0.
331  3.30  0.  0.  0.
332  3.31  0.  0.  0.
333  3.32  0.  0.  0.
334  3.33  0.  0.  0.
335  3.34  0.  0.  0.
336  3.35  0.  0.  0.
337  3.36  0.  0.  0.
338  3.37  0.  0.  0.
339  3.38  0.  0.  0.
340  3.39  0.  0.  0.
341  3.40  0.  0.  0.
342  3.41  0.  0.  0.
343  3.42  0.  0.  0.
344  3.43  0.  0.  0.
345  3.44  0.  0.  0.
346  3.45  0.  0.  0.
347  3.46  0.  0.  0.
348  3.47  0.  0.  0.
349  3.48  0.  0.  0.
350  3.49  0.  0.  0.
351  3.50  0.  0.  0.
352  3.51  0.  0.  0.
353  3.52  0.  0.  0.
354  3.53  0.  0.  0.
355  3.54  0.  0.  0.
356  3.55  0.  0.  0.
357  3.56  0.  0.  0.
358  3.57  0.  0.  0.
359  3.58  0.  0.  0.
360  3.59  0.  0.  0.
361  3.60  0.  0.  0.
362  3.61  0.  0.  0.
363  3.62  0.  0.  0.
364  3.63  0.  0.  0.
365  3.64  0.  0.  0.
366  3.65  0.  0.  0.
367  3.66  0.  0.  0.
368  3.67  0.  0.  0.
369  3.68  0.  0.  0.
370  3.69  0.  0.  0.
371  3.70  0.  0.  0.
372  3.71  0.  0.  0.
373  3.72  0.  0.  0.
374  3.73  0.  0.  0.
375  3.74  0.  0.  0.
376  3.75  0.  0.  0.
377  3.76  0.  0.  0.
378  3.77  0.  0.  0.
379  3.78  0.  0.  0.
380  3.79  0.  0.  0.
381  3.80  0.  0.  0.
382  3.81  0.  0.  0.
383  3.82  0.  0.  0.
384  3.83  0.  0.  0.
385  3.84  0.  0.  0.
386  3.85  0.  0.  0.
387  3.86  0.  0.  0.
388  3.87  0.  0.  0.
389  3.88  0.  0.  0.
390  3.89  0.  0.  0.
391  3.90  0.  0.  0.
392  3.91  0.  0.  0.
393  3.92  0.  0.  0.
394  3.93  0.  0.  0.
395  3.94  0.  0.  0.
396  3.95  0.  0.  0.
397  3.96  0.  0.  0.
398  3.97  0.  0.  0.
399  3.98  0.  0.  0.
400  3.99  0.  0.  0.
401  4.00  0.  0.  0.
402  4.01  0.  0.  0.
403  4.02  0.  0.  0.
404  4.03  0.  0.  0.
405  4.04  0.  0.  0.
406  4.05  0.  0.  0.
407  4.06  0.  0.  0.
408  4.07  0.  0.  0.
409  4.08  0.  0.  0.
410  4.09  0.  0.  0.
411  4.10  0.  0.  0.
412  4.11  0.  0.  0.
413  4.12  0.  0.  0.
414  4.13  0.  0.  0.
415  4.14  0.  0.  0.
416  4.15  0.  0.  0.
417  4.16  0.  0.  0.
418  4.17  0.  0.  0.
419  4.18  0.  0.  0.
420  4.19  0.  0.  0.
421  4.20  0.  0.  0.
422  4.21  0.  0.  0.
423  4.22  0.  0.  0.
424  4.23  0.  0.  0.
425  4.24  0.  0.  0.
426  4.25  0.  0.  0.
427  4.26  0.  0.  0.
428  4.27  0.  0.  0.
429  4.28  0.  0.  0.
430  4.29  0.  0.  0.
431  4.30  0.  0.  0.
432  4.31  0.  0.  0.
433  4.32  0.  0.  0.
434  4.33  0.  0.  0.
435  4.34  0.  0.  0.
436  4.35  0.  0.  0.
437  4.36  0.  0.  0.
438  4.37  0.  0.  0.
439  4.38  0.  0.  0.
440  4.39  0.  0.  0.
441  4.40  0.  0.  0.
442  4.41  0.  0.  0.
443  4.42  0.  0.  0.
444  4.43  0.  0.  0.
445  4.44  0.  0.  0.
446  4.45  0.  0.  0.
447  4.46  0.  0.  0.
448  4.47  0.  0.  0.
449  4.48  0.  0.  0.
450  4.49  0.  0.  0.
451  4.50  0.  0.  0.
452  4.51  0.  0.  0.
453  4.52  0.  0.  0.
454  4.53  0.  0.  0.
455  4.54  0.  0.  0.
456  4.55  0.  0.  0.
457  4.56  0.  0.  0.
458  4.57  0.  0.  0.
459  4.58  0.  0.  0.
460  4.59  0.  0.  0.
461  4.60  0.  0.  0.
462  4.61  0.  0.  0.
463  4.62  0.  0.  0.
464  4.63  0.  0.  0.
465  4.64  0.  0.  0.
466  4.65  0.  0.  0.
467  4.66  0.  0.  0.
468  4.67  0.  0.  0.
469  4.68  0.  0.  0.
470  4.69  0.  0.  0.
471  4.70  0.  0.  0.
472  4.71  0.  0.  0.
473  4.72  0.  0.  0.
474  4.73  0.  0.  0.
475  4.74  0.  0.  0.
476  4.75  0.  0.  0.
477  4.76  0.  0.  0.
478  4.77  0.  0.  0.
479  4.78  0.  0.  0.
480  4.79  0.  0.  0.
481  4.80  0.  0.  0.
482  4.81  0.  0.  0.
483  4.82  0.  0.  0.
484  4.83  0.  0.  0.
485  4.84  0.  0.  0.
486  4.85  0.  0.  0.
487  4.86  0.  0.  0.
488  4.87  0.  0.  0.
489  4.88  0.  0.  0.
490  4.89  0.  0.  0.
491  4.90  0.  0.  0.
492  4.91  0.  0.  0.
493  4.92  0.  0.  0.
494  4.93  0.  0.  0.
495  4.94  0.  0.  0.
496  4.95  0.  0.  0.
497  4.96  0.  0.  0.
498  4.97  0.  0.  0.
499  4.98  0.  0.  0.
500  4.99  0.  0.  0.
501  5.00  0.  0.  0.
502  5.01  0.  0.  0.
503  5.02  0.  0.  0.
504  5.03  0.  0.  0.
505  5.04  0.  0.  0.
506  5.05  0.  0.  0.
507  5.06  0.  0.  0.
508  5.07  0.  0.  0.
509  5.08  0.  0.  0.
510  5.09  0.  0.  0.
511  5.10  0.  0.  0.
512  5.11  0.  0.  0.
513  5.12  0.  0.  0.
514  5.13  0.  0.  0.
515  5.14  0.  0.  0.
516  5.15  0.  0.  0.
517  5.16  0.  0.  0.
518  5.17  0.  0.  0.
519  5.18  0.  0.  0.
520  5.19  0.  0.  0.
521  5.20  0.  0.  0.
522  5.21  0.  0.  0.
523  5.22  0.  0.  0.
524  5.23  0.  0.  0.
525  5.24  0.  0.  0.
526  5.25  0.  0.  0.
527  5.26  0.  0.  0.
528  5.27  0.  0.  0.
529  5.28  0.  0.  0.
530  5.29  0.  0.  0.
531  5.30  0.  0.  0.
532  5.31  0.  0.  0.
533  5.32  0.  0.  0.
534  5.33  0.  0.  0.
535  5.34  0.  0.  0.
536  5.35  0.  0.  0.
537  5.36  0.  0.  0.
538  5.37  0.  0.  0.
539  5.38  0.  0.  0.
540  5.39  0.  0.  0.
541  5.40  0.  0.  0.
542  5.41  0.  0.  0.
543  5.42  0.  0.  0.
544  5.43  0.  0.  0.
545  5.44  0.  0.  0.
546  5.45  0.  0.  0.
547  5.46  0.  0.  0.
548  5.47  0.  0.  0.
549  5.48  0.  0.  0.
550  5.49  0.  0.  0.
551  5.50  0.  0.  0.
552  5.51  0.  0.  0.
553  5.52  0.  0.  0.
554  5.53  0.  0.  0.
555  5.54  0.  0.  0.
556  5.55  0.  0.  0.
557  5.56  0.  0.  0.
558  5.57  0.  0.  0.
559  5.58  0.  0.  0.
560  5.59  0.  0.  0.
561  5.60  0.  0.  0.
562  5.61  0.  0.  0.
563  5.62  0.  0.  0.
564  5.63  0.  0.  0.
565  5.64  0.  0.  0.
566  5.65  0.  0.  0.
567  5.66  0.  0.  0.
568  5.67  0.  0.  0.
569  5.68  0.  0.  0.
570  5.69  0.  0.  0.
571  5.70  0.  0.  0.
572  5.71  0.  0.  0.
573  5.72  0.  0.  0.
574  5.73  0.  0.  0.
575  5.74  0.  0.  0.
576  5.75  0.  0.  0.
577  5.76  0.  0.  0.
578  5.77  0.  0.  0.
579  5.78  0.  0.  0.
580  5.79  0.  0.  0.
581  5.80  0.  0.  0.
582  5.81  0.  0.  0.
583  5.82  0.  0.  0.
584  5.83  0.  0.  0.
585  5.84  0.  0.  0.
586  5.85  0.  0.  0.
587  5.86  0.  0.  0.
588  5.87  0.  0.  0.
589  5.88  0.  0.  0.
590  5.89  0.  0.  0.
591  5.90  0.  0.  0.
592  5.91  0.  0.  0.
593  5.92  0.  0.  0.
594  5.93  0.  0.  0.
595  5.94  0.  0.  0.
596  5.95  0.  0.  0.
597  5.96  0.  0.  0.
598  5.97  0.  0.  0.
599  5.98  0.  0.  0.
600  5.99  0.  0.  0.
1                         6.8749994145063E+00  6.6119070202315E-01
1  0.0000000000000E+00  4.3092311385884E-09 -1.8967161993788E-08
2  1.0000000000000E-02  1.1612216840116E-03 -1.9600389539354E-03
3  2.0000000000000E-02  4.6361968749347E-03 -7.8064813528681E-03
4  3.0000000000000E-02  1.0398992793210E-02 -1.7438911994104E-02
5  4.0000000000000E-02  1.8406841636787E-02 -3.0691988466772E-02
6  5.0000000000000E-02  2.8600812069356E-02 -4.7338427148183E-02
7  6.0000000000000E-02  4.0906731953817E-02 -6.7093107516512E-02
8  7.0000000000000E-02  5.5236345363461E-02 -8.9618220332789E-02
9  8.0000000000000E-02  7.1488682594063E-02 -1.1452936627802E-01
10  9.0000000000000E-02  8.9551617981558E-02 -1.4140249433595E-01
11  1.0000000000000E-01  1.0930358687446E-01 -1.6978155389950E-01
12  1.1000000000000E-01  1.3061543018151E-01 -1.9918672152446E-01
13  1.2000000000000E-01  1.5335233256803E-01 -2.2912305269431E-01
14  1.3000000000000E-01  1.7737581865262E-01 -2.5908940108677E-01
15  1.4000000000000E-01  2.0254577049287E-01 -2.8858744279115E-01
16  1.5000000000000E-01  2.2872242926417E-01 -3.1713064080953E-01
17  1.6000000000000E-01  2.5576834433938E-01 -3.4425298602826E-01
18  1.7000000000000E-01  2.8355023396468E-01 -3.6951735465886E-01
19  1.8000000000000E-01  3.1194072338104E-01 -3.9252332885626E-01
20  1.9000000000000E-01  3.4081992853496E-01 -4.1291433671473E-01
21  2.0000000000000E-01  3.7007685641375E-01 -4.3038397995205E-01
22  2.1000000000000E-01  3.9961059647996E-01 -4.4468143211133E-01
23  2.2000000000000E-01  4.2933128160456E-01 -4.5561580678139E-01
24  2.3000000000000E-01  4.5916080123816E-01 -4.6305941386799E-01
25  2.4000000000000E-01  4.8903325423599E-01 -4.6694984201161E-01
26  2.5000000000000E-01  5.1889513368013E-01 -4.6729082648625E-01
27  2.6000000000000E-01  5.4870524113204E-01 -4.6415188394996E-01
28  2.7000000000000E-01  5.7843433290564E-01 -4.5766671785733E-01
29  2.8000000000000E-01  6.0806450608212E-01 -4.4803042078399E-01
30  2.9000000000000E-01  6.3758833699603E-01 -4.3549552194910E-01
31  3.0000000000000E-01  6.6700778971545E-01 -4.2036694945534E-01
32  3.1000000000000E-01  6.9633291652697E-01 -4.0299599681086E-01
33  3.2000000000000E-01  7.2558037653393E-01 -3.8377340178703E-01
34  3.3000000000000E-01  7.5477180210566E-01 -3.6312166226124E-01
35  3.4000000000000E-01  7.8393204600635E-01 -3.4148672808576E-01
36  3.5000000000000E-01  8.1308734452396E-01 -3.1932921994449E-01
37  3.6000000000000E-01  8.4226343376213E-01 -2.9711533538149E-01
38  3.7000000000000E-01  8.7148365741329E-01 -2.7530760853115E-01
39  3.8000000000000E-01  9.0076710477255E-01 -2.5435569342135E-01
40  3.9000000000000E-01  9.3012681746720E-01 -2.3468734098449E-01
41  4.0000000000000E-01  9.5956810236518E-01 -2.1669973707786E-01
42  4.1000000000000E-01  9.8908698640217E-01 -2.0075136292214E-01
43  4.2000000000000E-01  1.0186688466572E+00 -1.8715453050721E-01
44  4.3000000000000E-01  1.0482872459516E+00 -1.7616873383573E-01
45  4.4000000000000E-01  1.0779030005969E+00 -1.6799494257666E-01
46  4.5000000000000E-01  1.1074635027379E+00 -1.6277094802979E-01