Gd    ONCVPSP-4.0.1  r_core=   2.00348   1.60569   1.90986   1.35805
64.0000     18.0000      241104    zatom,zion,pspd
8      11   3     4   600     0    pspcod,pspxc,lmax,lloc,mmax,r2well
5.99000000  4.00000000  0.00000000    rchrg fchrg qchrg
3     2     2     2     0    nproj
1     1           extension_switch
0                         1.2443789678817E+01  2.7651566167710E+00  5.3482539548294E-01
1  0.0000000000000E+00 -9.4603569422702E-10  2.2506599361982E-09 -3.3725766623860E-09
2  1.0000000000000E-02  5.2935431310638E-02 -3.0653036611891E-02  4.7760804859446E-02
3  2.0000000000000E-02  1.0570628550304E-01 -6.0959928285086E-02  9.4985796299701E-02
4  3.0000000000000E-02  1.5814961685340E-01 -9.0578600389172E-02  1.4114555045893E-01
5  4.0000000000000E-02  2.1010572224666E-01 -1.1917506967548E-01  1.8572334715250E-01
6  5.0000000000000E-02  2.6141971227400E-01 -1.4642736745998E-01  2.2822133398521E-01
7  6.0000000000000E-02  3.1194302276112E-01 -1.7202931741105E-01  2.6816646760948E-01
8  7.0000000000000E-02  3.6153484799415E-01 -1.9569412214865E-01  3.0511616184727E-01
9  8.0000000000000E-02  4.1006347785612E-01 -2.1715771511254E-01  3.3866357576564E-01
10  9.0000000000000E-02  4.5740752224977E-01 -2.3618183692342E-01  3.6844247894364E-01
11  1.0000000000000E-01  5.0345700754700E-01 -2.5255679871110E-01  3.9413163604205E-01
12  1.1000000000000E-01  5.4811433135777E-01 -2.6610389858079E-01  4.1545865833547E-01
13  1.2000000000000E-01  5.9129506363263E-01 -2.7667746149174E-01  4.3220327602745E-01
14  1.3000000000000E-01  6.3292858398359E-01 -2.8416647728397E-01  4.4419999187393E-01
15  1.4000000000000E-01  6.7295854710637E-01 -2.8849581635862E-01  4.5134008381435E-01
16  1.5000000000000E-01  7.1134317029017E-01 -2.8962700754236E-01  4.5357293187582E-01
17  1.6000000000000E-01  7.4805533918326E-01 -2.8755856788541E-01  4.5090665248283E-01
18  1.7000000000000E-01  7.8308253022029E-01 -2.8232587950147E-01  4.4340803139373E-01
19  1.8000000000000E-01  8.1642655038216E-01 -2.7400061398930E-01  4.3120175469645E-01
20  1.9000000000000E-01  8.4810309722565E-01 -2.6268971042007E-01  4.1446894554038E-01
21  2.0000000000000E-01  8.7814114436053E-01 -2.4853391826699E-01  3.9344502246487E-01
22  2.1000000000000E-01  9.0658215974116E-01 -2.3170592193440E-01  3.6841690321603E-01
23  2.2000000000000E-01  9.3347916624735E-01 -2.1240806864217E-01  3.3971958572047E-01
24  2.3000000000000E-01  9.5889565603577E-01 -1.9086972628944E-01  3.0773214533319E-01
25  2.4000000000000E-01  9.8290437201749E-01 -1.6734430248815E-01  2.7287319449122E-01
26  2.5000000000000E-01  1.0055859715421E+00 -1.4210596017836E-01  2.3559585741985E-01
27  2.6000000000000E-01  1.0270275889162E+00 -1.1544606905067E-01  1.9638231845913E-01
28  2.7000000000000E-01  1.0473213147418E+00 -8.7669435370800E-02  1.5573800785035E-01
29  2.8000000000000E-01  1.0665626112013E+00 -5.9090355675164E-02  1.1418549336669E-01
30  2.9000000000000E-01  1.0848486833353E+00 -3.0028542150678E-02  7.2258149937202E-02
31  3.0000000000000E-01  1.1022768270338E+00 -8.0496929996509E-04  3.0493682355216E-02
32  3.1000000000000E-01  1.1189427748925E+00  2.8262307308401E-02 -1.0572421768236E-02
33  3.2000000000000E-01  1.1349390612519E+00  5.6862308808998E-02 -5.0413430472747E-02
34  3.3000000000000E-01  1.1503534276500E+00  8.4695215948317E-02 -8.8517818745214E-02
35  3.4000000000000E-01  1.1652672895652E+00  1.1147632639397E-01 -1.2439555472619E-01
36  3.5000000000000E-01  1.1797542847122E+00  1.3693983695589E-01 -1.5758414449910E-01
37  3.6000000000000E-01  1.1938789222879E+00  1.6084240309286E-01 -1.8765436164926E-01
38  3.7000000000000E-01  1.2076953514463E+00  1.8296643052201E-01 -2.1421559117594E-01
39  3.8000000000000E-01  1.2212462659367E+00  2.0312305675994E-01 -2.3692072160067E-01
40  3.9000000000000E-01  1.2345619602634E+00  2.2115478396627E-01 -2.5547052418880E-01
41  4.0000000000000E-01  1.2476595509558E+00  2.3693772849000E-01 -2.6961746402730E-01
42  4.1000000000000E-01  1.2605423745764E+00  2.5038345700328E-01 -2.7916889423580E-01
43  4.2000000000000E-01  1.2731995719799E+00  2.6144038398032E-01 -2.8398959173470E-01
44  4.3000000000000E-01  1.2856058660760E+00  2.7009471049924E-01 -2.8400360069447E-01
45  4.4000000000000E-01  1.2977215379897E+00  2.7637088983879E-01 -2.7919535793940E-01
46  4.5000000000000E-01  1.3094926040610E+00  2.8033161105168E-01 -2.6961008309189E-01
47  4.6000000000000E-01  1.3208511936326E+00  2.8207729755521E-01 -2.5535342502340E-01
48  4.7000000000000E-01  1.3317161250522E+00  2.8174512370687E-01 -2.3659036510693E-01
49  4.8000000000000E-01  1.3419936748088E+00  2.7950755826910E-01 -2.1354338675613E-01
50  4.9000000000000E-01  1.3515785322555E+00  2.7557044952764E-01 -1.8648992966371E-01
51  5.0000000000000E-01  1.3603549299775E+00  2.7017067254599E-01 -1.5575915591520E-01
52  5.1000000000000E-01  1.3681979375765E+00  2.6357336454049E-01 -1.2172806364534E-01
53  5.2000000000000E-01  1.3749749044858E+00  2.5606877957260E-01 -8.4816992012646E-02
54  5.3000000000000E-01  1.3805470354405E+00  2.4796879861561E-01 -4.5484568896638E-02
55  5.4000000000000E-01  1.3847710804254E+00  2.3960313549484E-01 -4.2221597732910E-03
56  5.5000000000000E-01  1.3875011193324E+00  2.3131528316241E-01  3.8452117400417E-02
57  5.6000000000000E-01  1.3885904202144E+00  2.2345824820224E-01  8.1999740834701E-02
58  5.7000000000000E-01  1.3878933489227E+00  2.1639012431569E-01  1.2586842183433E-01
59  5.8000000000000E-01  1.3852673070966E+00  2.1046955777509E-01  1.6949895084962E-01
60  5.9000000000000E-01  1.3805746749389E+00  2.0605115941632E-01  2.1233217054527E-01
61  6.0000000000000E-01  1.3736847349672E+00  2.0348091865308E-01  2.5381599181758E-01
62  6.1000000000000E-01  1.3644755529947E+00  2.0309167521354E-01  2.9341236775360E-01
63  6.2000000000000E-01  1.3528357929566E+00  2.0519870381698E-01  3.3060414063191E-01
64  6.3000000000000E-01  1.3386664428601E+00  2.1009546583186E-01  3.6490167821258E-01
65  6.4000000000000E-01  1.3218824300937E+00  2.1804958009735E-01  3.9584921774525E-01
66  6.5000000000000E-01  1.3024141055764E+00  2.2929906255541E-01  4.2303083933756E-01
67  6.6000000000000E-01  1.2802085777314E+00  2.4404888118585E-01  4.4607599449603E-01
68  6.7000000000000E-01  1.2552308790366E+00  2.6246786897420E-01  4.6466452077001E-01
69  6.8000000000000E-01  1.2274649498921E+00  2.8468603333355E-01  4.7853107941275E-01
70  6.9000000000000E-01  1.1969144267432E+00  3.1079229560132E-01  4.8746895974938E-01
71  7.0000000000000E-01  1.1636032237670E+00  3.4083268899238E-01  4.9133320144048E-01
72  7.1000000000000E-01  1.1275758999511E+00  3.7480903779429E-01  4.9004299393630E-01
73  7.2000000000000E-01  1.0888978060217E+00  4.1267813469308E-01  4.8358332105546E-01
74  7.3000000000000E-01  1.0476550083851E+00  4.5435142702332E-01  4.7200582764777E-01
75  7.4000000000000E-01  1.0039539899956E+00  4.9969521649330E-01  4.5542889464292E-01
76  7.5000000000000E-01  9.5792113081293E-01  5.4853137066541E-01  4.3403691827403E-01
77  7.6000000000000E-01  9.0970197322952E-01  6.0063853822438E-01  4.0807879882469E-01
78  7.7000000000000E-01  8.5946028049258E-01  6.5575385395279E-01  3.7786565371836E-01
79  7.8000000000000E-01  8.0737689867979E-01  7.1357511342549E-01  3.4376777904592E-01
80  7.9000000000000E-01  7.5364843518187E-01  7.7376339180898E-01  3.0621089259822E-01
81  8.0000000000000E-01  6.9848576885432E-01  8.3594607590397E-01  2.6567169999202E-01
82  8.1000000000000E-01  6.4211240900669E-01  8.9972027374661E-01  2.2267283347893E-01
83  8.2000000000000E-01  5.8476272216255E-01  9.6465656177064E-01  1.7777722037826E-01
84  8.3000000000000E-01  5.2668004702567E-01  1.0303030257786E+00  1.3158194469776E-01
85  8.4000000000000E-01  4.6811471930708E-01  1.0961895488243E+00  8.4711671323024E-02
86  8.5000000000000E-01  4.0932202898573E-01  1.1618322966133E+00  3.7811707095116E-02
87  8.6000000000000E-01  3.5056013317904E-01  1.2267383492139E+00 -8.4592228972004E-03
88  8.7000000000000E-01  2.9208794808409E-01  1.2904104267521E+00 -5.3436402440406E-02
89  8.8000000000000E-01  2.3416304340922E-01  1.3523516563541E+00 -9.6456671320105E-02
90  8.9000000000000E-01  1.7703956235538E-01  1.4120703278941E+00 -1.3686600798265E-01
91  9.0000000000000E-01  1.2096618953163E-01  1.4690845870821E+00 -1.7402706322166E-01
92  9.1000000000000E-01  6.6184188214404E-02  1.5229270160737E+00 -2.0732656129617E-01
93  9.2000000000000E-01  1.2925527102879E-02  1.5731490540451E+00 -2.3618248674212E-01
94  9.3000000000000E-01 -3.8588884796371E-02  1.6193252130258E+00 -2.6005097788200E-01
95  9.4000000000000E-01 -8.8150838270098E-02  1.6610570476343E+00 -2.7843285158735E-01
96  9.5000000000000E-01 -1.3556632405566E-01  1.6979768411845E+00 -2.9087968816393E-01
97  9.6000000000000E-01 -1.8065688024134E-01  1.7297509748100E+00 -2.9699941017436E-01
98  9.7000000000000E-01 -2.2326077634882E-01  1.7560829507485E+00 -2.9646129455050E-01
99  9.8000000000000E-01 -2.6323402587043E-01  1.7767160456133E+00 -2.8900036332061E-01
100  9.9000000000000E-01 -3.0045122141939E-01  1.7914355742990E+00 -2.7442110463198E-01
101  1.0000000000000E+00 -3.3480618903772E-01  1.8000707500102E+00 -2.5260048235007E-01
102  1.0100000000000E+00 -3.6621246055078E-01  1.8024961306744E+00 -2.2349019926828E-01
103  1.0200000000000E+00 -3.9460356512036E-01  1.7986326466315E+00 -1.8711818577973E-01
104  1.0300000000000E+00 -4.1993314328334E-01  1.7884482088745E+00 -1.4358929264008E-01
105  1.0400000000000E+00 -4.4217488873346E-01  1.7719579011858E+00 -9.3085173121862E-02
106  1.0500000000000E+00 -4.6132232487202E-01  1.7492237631913E+00 -3.5863346359825E-02
107  1.0600000000000E+00 -4.7738842468612E-01  1.7203541745848E+00  2.7744560038783E-02
108  1.0700000000000E+00 -4.9040508378479E-01  1.6855028535056E+00  9.7335384002499E-02
109  1.0800000000000E+00 -5.0042245740837E-01  1.6448674842511E+00  1.7243780972395E-01
110  1.0900000000000E+00 -5.0750817291372E-01  1.5986879911562E+00  2.5251653962124E-01
111  1.1000000000000E+00 -5.1174642961499E-01  1.5472444765718E+00  3.3697723664004E-01
112  1.1100000000000E+00 -5.1323699793024E-01  1.4908548414545E+00  4.2517221064393E-01
113  1.1200000000000E+00 -5.1209412955387E-01  1.4298721071639E+00  5.1640681724105E-01
114  1.1300000000000E+00 -5.0844538986797E-01  1.3646814567565E+00  6.0994653175254E-01
115  1.1400000000000E+00 -5.0243042304317E-01  1.2956970134102E+00  7.0502465496839E-01
116  1.1500000000000E+00 -4.9419965931199E-01  1.2233583727851E+00  8.0085060058531E-01
117  1.1600000000000E+00 -4.8391297276841E-01  1.1481269052299E+00  8.9661870648982E-01
118  1.1700000000000E+00 -4.7173829682648E-01  1.0704818429912E+00  9.9151750299725E-01
119  1.1800000000000E+00 -4.5785020323596E-01  9.9091616716676E-01  1.0847393603893E+00
120  1.1900000000000E+00 -4.4242844939204E-01  9.0993230932716E-01  1.1754904251183E+00
121  1.2000000000000E+00 -4.2565649770332E-01  8.2803768377322E-01  1.2630007384886E+00
122  1.2100000000000E+00 -4.0772001010852E-01  7.4574006864843E-01  1.3465344126812E+00
123  1.2200000000000E+00 -3.8880532060678E-01  6.6354285789550E-01  1.4253997163985E+00
124  1.2300000000000E+00 -3.6909788903520E-01  5.8194021179072E-01  1.4989588950708E+00
125  1.2400000000000E+00 -3.4878074046974E-01  5.0141214190360E-01  1.5666375180692E+00
126  1.2500000000000E+00 -3.2803289671760E-01  4.2241957726808E-01  1.6279331068590E+00
127  1.2600000000000E+00 -3.0702780965704E-01  3.4539947298725E-01  1.6824227522460E+00
128  1.2700000000000E+00 -2.8593181084727E-01  2.7076004078790E-01  1.7297693754986E+00
129  1.2800000000000E+00 -2.6490259816185E-01  1.9887620398386E-01  1.7697262256323E+00
130  1.2900000000000E+00 -2.4408778849872E-01  1.3008540763525E-01  1.8021391323481E+00
131  1.3000000000000E+00 -2.2362357611772E-01  6.4683948920795E-02  1.8269459503650E+00
132  1.3100000000000E+00 -2.0363354923355E-01  2.9240338545956E-03  1.8441725344166E+00
133  1.3200000000000E+00 -1.8422773355391E-01 -5.4988184520147E-02  1.8539244733578E+00
134  1.3300000000000E+00 -1.6550195082051E-01 -1.0889327371276E-01  1.8563736856689E+00
135  1.3400000000000E+00 -1.4753760353600E-01 -1.5867751488348E-01  1.8517388306058E+00
136  1.3500000000000E+00 -1.3040202351996E-01 -2.0426976675532E-01  1.8402583715370E+00
137  1.3600000000000E+00 -1.1414955985049E-01 -2.4563563141683E-01  1.8221546511319E+00
138  1.3700000000000E+00 -9.8823248699536E-02 -2.8276976264549E-01  1.7976033179275E+00
139  1.3800000000000E+00 -8.4455108128560E-02 -3.1569457255334E-01  1.7667811922036E+00
140  1.3900000000000E+00 -7.1065918632478E-02 -3.4446176867563E-01  1.7299137168052E+00
141  1.4000000000000E+00 -5.8665852821715E-02 -3.6915069121619E-01  1.6872734196050E+00
142  1.4100000000000E+00 -4.7255207556821E-02 -3.8986633121249E-01  1.6391765926204E+00
143  1.4200000000000E+00 -3.6825200001169E-02 -4.0673716583187E-01  1.5859793675015E+00
144  1.4300000000000E+00 -2.7358810906856E-02 -4.1991285619612E-01  1.5280735076592E+00
145  1.4400000000000E+00 -1.8831661799114E-02 -4.2956184089080E-01  1.4658819712875E+00
146  1.4500000000000E+00 -1.1212913228130E-02 -4.3586885673630E-01  1.3998542916402E+00
147  1.4600000000000E+00 -4.4661714717300E-03 -4.3903241839862E-01  1.3304618272202E+00
148  1.4700000000000E+00  1.4496084439570E-03 -4.3926228760602E-01  1.2581929344730E+00
149  1.4800000000000E+00  6.5792348963014E-03 -4.3677696152560E-01  1.1835481147182E+00
150  1.4900000000000E+00  1.0970417692564E-02 -4.3180120828009E-01  1.1070351855765E+00
151  1.5000000000000E+00  1.4672941785717E-02 -4.2456367578730E-01  1.0291645255703E+00
152  1.5100000000000E+00  1.7737885463428E-02 -4.1529459788956E-01  9.5044443774801E-01
153  1.5200000000000E+00  2.0216890710417E-02 -4.0422361942470E-01  8.7137667562306E-01
154  1.5300000000000E+00  2.2161492268146E-02 -3.9157775928972E-01  7.9245217130308E-01
155  1.5400000000000E+00  2.3622510702812E-02 -3.7757952784159E-01  7.1414700213339E-01
156  1.5500000000000E+00  2.4649513531130E-02 -3.6244521209871E-01  6.3691862808561E-01
157  1.5600000000000E+00  2.5290347216404E-02 -3.4638333938330E-01  5.6120242830059E-01
158  1.5700000000000E+00  2.5590741581760E-02 -3.2959332706138E-01  4.8740856059974E-01
159  1.5800000000000E+00  2.5593986963543E-02 -3.1226432313507E-01  4.1591916340043E-01
160  1.5900000000000E+00  2.5340683275063E-02 -2.9457423967773E-01  3.4708591524919E-01
161  1.6000000000000E+00  2.4868559012292E-02 -2.7668897828000E-01  2.8122796240852E-01
162  1.6100000000000E+00  2.4212357211556E-02 -2.5876184412473E-01  2.1863022071970E-01
163  1.6200000000000E+00  2.3403784433619E-02 -2.4093314290843E-01  1.5954205377872E-01
164  1.6300000000000E+00  2.2471517994891E-02 -2.2332995255565E-01  1.0417632518324E-01
165  1.6400000000000E+00  2.1441265953758E-02 -2.0606605972058E-01  5.2708818885034E-02
166  1.6500000000000E+00  2.0335873744177E-02 -1.8924204928274E-01  5.2780179107943E-03
167  1.6600000000000E+00  1.9175470901266E-02 -1.7294553365557E-01 -3.8014771324997E-02
168  1.6700000000000E+00  1.7977650946148E-02 -1.5725150741465E-01 -7.7104965269192E-02
169  1.6800000000000E+00  1.6757677250726E-02 -1.4222281172956E-01 -1.1196393913829E-01
170  1.6900000000000E+00  1.5528707904099E-02 -1.2791069332548E-01 -1.4259797140584E-01
171  1.7000000000000E+00  1.4302031975251E-02 -1.1435544024091E-01 -1.6904692383513E-01
172  1.7100000000000E+00  1.3087310637864E-02 -1.0158707938108E-01 -1.9138267753342E-01
173  1.7200000000000E+00  1.1892816353834E-02 -8.9626119314680E-02 -2.0970735175592E-01
174  1.7300000000000E+00  1.0725663586087E-02 -7.8484321816597E-02 -2.2415133418495E-01
175  1.7400000000000E+00  9.5920255705049E-03 -6.8165488092523E-02 -2.3487114686228E-01
176  1.7500000000000E+00  8.4973317694679E-03 -5.8666244976554E-02 -2.4204717654556E-01
177  1.7600000000000E+00  7.4464415481550E-03 -4.9976818278190E-02 -2.4588129580859E-01
178  1.7700000000000E+00  6.4437902362484E-03 -4.2081781389641E-02 -2.4659440161640E-01
179  1.7800000000000E+00  5.4935045483328E-03 -3.4960768770661E-02 -2.4442389702455E-01
180  1.7900000000000E+00  4.5994851457327E-03 -2.8589145434112E-02 -2.3962114062211E-01
181  1.8000000000000E+00  3.7654549107339E-03 -2.2938625020856E-02 -2.3244888738455E-01
182  1.8100000000000E+00  2.9949723620947E-03 -1.7977830762854E-02 -2.2317874294395E-01
183  1.8200000000000E+00  2.2914104097933E-03 -1.3672795128172E-02 -2.1208865205925E-01
184  1.8300000000000E+00  1.6579014758429E-03 -9.9873956722529E-03 -1.9946044010230E-01
185  1.8400000000000E+00  1.0972507092866E-03 -6.8837260535486E-03 -1.8557742492829E-01
186  1.8500000000000E+00  6.1181970386123E-04 -4.3224026173957E-03 -1.7072211481324E-01
187  1.8600000000000E+00  2.0338378914292E-04 -2.2628084402451E-03 -1.5517400608566E-01
188  1.8700000000000E+00 -1.2701284819863E-04 -6.6332171029058E-04 -1.3920743917669E-01
189  1.8800000000000E+00 -3.7940368266290E-04  5.1889878872484E-04 -1.2309004896141E-01
190  1.8900000000000E+00 -5.5463105315309E-04  1.3268450902569E-03 -1.0707972215542E-01
191  1.9000000000000E+00 -6.5509458120895E-04  1.8047640588198E-03 -9.1424284678500E-02
192  1.9100000000000E+00 -6.9462235165864E-04  2.0186548771923E-03 -7.6384908985096E-02
193  1.9200000000000E+00 -7.0327859114961E-04  2.0661011702966E-03 -6.2246645343408E-02
194  1.9300000000000E+00 -6.7949976855947E-04  1.9743709511173E-03 -4.9192987649293E-02
195  1.9400000000000E+00 -6.2164741585435E-04  1.7668812867362E-03 -3.7385627926536E-02
196  1.9500000000000E+00 -5.3270056906910E-04  1.4728457727083E-03 -2.6975150882086E-02
197  1.9600000000000E+00 -4.1943382597202E-04  1.1252865822896E-03 -1.8097712045683E-02
198  1.9700000000000E+00 -2.9281978594707E-04  7.6169384644111E-04 -1.0876556173343E-02
199  1.9800000000000E+00 -1.6769955539886E-04  4.2308733868959E-04 -5.4116742008804E-03
200  1.9900000000000E+00 -6.3548689329523E-05  1.5564272947050E-04 -1.7940460408719E-03
201  2.0000000000000E+00 -7.9953044923935E-06  1.8955056698304E-05 -1.8914681398942E-04
202  2.0100000000000E+00  2.5244480308014E-06 -5.9590712647195E-06  6.2999845698360E-05
203  2.0200000000000E+00 -7.8296950031839E-07  1.8768120342786E-06 -2.0615502949254E-05
204  2.03  0. -0.  0.
205  2.04  0. -0.  0.
206  2.05  0. -0.  0.
207  2.06  0.  0.  0.
208  2.07  0.  0.  0.
209  2.08  0.  0.  0.
210  2.09  0.  0.  0.
211  2.10  0.  0.  0.
212  2.11  0.  0.  0.
213  2.12  0.  0.  0.
214  2.13  0.  0.  0.
215  2.14  0.  0.  0.
216  2.15  0.  0.  0.
217  2.16  0.  0.  0.
218  2.17  0.  0.  0.
219  2.18  0.  0.  0.
220  2.19  0.  0.  0.
221  2.20  0.  0.  0.
222  2.21  0.  0.  0.
223  2.22  0.  0.  0.
224  2.23  0.  0.  0.
225  2.24  0.  0.  0.
226  2.25  0.  0.  0.
227  2.26  0.  0.  0.
228  2.27  0.  0.  0.
229  2.28  0.  0.  0.
230  2.29  0.  0.  0.
231  2.30  0.  0.  0.
232  2.31  0.  0.  0.
233  2.32  0.  0.  0.
234  2.33  0.  0.  0.
235  2.34  0.  0.  0.
236  2.35  0.  0.  0.
237  2.36  0.  0.  0.
238  2.37  0.  0.  0.
239  2.38  0.  0.  0.
240  2.39  0.  0.  0.
241  2.40  0.  0.  0.
242  2.41  0.  0.  0.
243  2.42  0.  0.  0.
244  2.43  0.  0.  0.
245  2.44  0.  0.  0.
246  2.45  0.  0.  0.
247  2.46  0.  0.  0.
248  2.47  0.  0.  0.
249  2.48  0.  0.  0.
250  2.49  0.  0.  0.
251  2.50  0.  0.  0.
252  2.51  0.  0.  0.
253  2.52  0.  0.  0.
254  2.53  0.  0.  0.
255  2.54  0.  0.  0.
256  2.55  0.  0.  0.
257  2.56  0.  0.  0.
258  2.57  0.  0.  0.
259  2.58  0.  0.  0.
260  2.59  0.  0.  0.
261  2.60  0.  0.  0.
262  2.61  0.  0.  0.
263  2.62  0.  0.  0.
264  2.63  0.  0.  0.
265  2.64  0.  0.  0.
266  2.65  0.  0.  0.
267  2.66  0.  0.  0.
268  2.67  0.  0.  0.
269  2.68  0.  0.  0.
270  2.69  0.  0.  0.
271  2.70  0.  0.  0.
272  2.71  0.  0.  0.
273  2.72  0.  0.  0.
274  2.73  0.  0.  0.
275  2.74  0.  0.  0.
276  2.75  0.  0.  0.
277  2.76  0.  0.  0.
278  2.77  0.  0.  0.
279  2.78  0.  0.  0.
280  2.79  0.  0.  0.
281  2.80  0.  0.  0.
282  2.81  0.  0.  0.
283  2.82  0.  0.  0.
284  2.83  0.  0.  0.
285  2.84  0.  0.  0.
286  2.85  0.  0.  0.
287  2.86  0.  0.  0.
288  2.87  0.  0.  0.
289  2.88  0.  0.  0.
290  2.89  0.  0.  0.
291  2.90  0.  0.  0.
292  2.91  0.  0.  0.
293  2.92  0.  0.  0.
294  2.93  0.  0.  0.
295  2.94  0.  0.  0.
296  2.95  0.  0.  0.
297  2.96  0.  0.  0.
298  2.97  0.  0.  0.
299  2.98  0.  0.  0.
300  2.99  0.  0.  0.
301  3.00  0.  0.  0.
302  3.01  0.  0.  0.
303  3.02  0.  0.  0.
304  3.03  0.  0.  0.
305  3.04  0.  0.  0.
306  3.05  0.  0.  0.
307  3.06  0.  0.  0.
308  3.07  0.  0.  0.
309  3.08  0.  0.  0.
310  3.09  0.  0.  0.
311  3.10  0.  0.  0.
312  3.11  0.  0.  0.
313  3.12  0.  0.  0.
314  3.13  0.  0.  0.
315  3.14  0.  0.  0.
316  3.15  0.  0.  0.
317  3.16  0.  0.  0.
318  3.17  0.  0.  0.
319  3.18  0.  0.  0.
320  3.19  0.  0.  0.
321  3.20  0.  0.  0.
322  3.21  0.  0.  0.
323  3.22  0.  0.  0.
324  3.23  0.  0.  0.
325  3.24  0.  0.  0.
326  3.25  0.  0.  0.
327  3.26  0.  0.  0.
328  3.27  0.  0.  0.
329  3.28  0.  0.  0.
330  3.29  0.  0.  0.
331  3.30  0.  0.  0.
332  3.31  0.  0.  0.
333  3.32  0.  0.  0.
334  3.33  0.  0.  0.
335  3.34  0.  0.  0.
336  3.35  0.  0.  0.
337  3.36  0.  0.  0.
338  3.37  0.  0.  0.
339  3.38  0.  0.  0.
340  3.39  0.  0.  0.
341  3.40  0.  0.  0.
342  3.41  0.  0.  0.
343  3.42  0.  0.  0.
344  3.43  0.  0.  0.
345  3.44  0.  0.  0.
346  3.45  0.  0.  0.
347  3.46  0.  0.  0.
348  3.47  0.  0.  0.
349  3.48  0.  0.  0.
350  3.49  0.  0.  0.
351  3.50  0.  0.  0.
352  3.51  0.  0.  0.
353  3.52  0.  0.  0.
354  3.53  0.  0.  0.
355  3.54  0.  0.  0.
356  3.55  0.  0.  0.
357  3.56  0.  0.  0.
358  3.57  0.  0.  0.
359  3.58  0.  0.  0.
360  3.59  0.  0.  0.
361  3.60  0.  0.  0.
362  3.61  0.  0.  0.
363  3.62  0.  0.  0.
364  3.63  0.  0.  0.
365  3.64  0.  0.  0.
366  3.65  0.  0.  0.
367  3.66  0.  0.  0.
368  3.67  0.  0.  0.
369  3.68  0.  0.  0.
370  3.69  0.  0.  0.
371  3.70  0.  0.  0.
372  3.71  0.  0.  0.
373  3.72  0.  0.  0.
374  3.73  0.  0.  0.
375  3.74  0.  0.  0.
376  3.75  0.  0.  0.
377  3.76  0.  0.  0.
378  3.77  0.  0.  0.
379  3.78  0.  0.  0.
380  3.79  0.  0.  0.
381  3.80  0.  0.  0.
382  3.81  0.  0.  0.
383  3.82  0.  0.  0.
384  3.83  0.  0.  0.
385  3.84  0.  0.  0.
386  3.85  0.  0.  0.
387  3.86  0.  0.  0.
388  3.87  0.  0.  0.
389  3.88  0.  0.  0.
390  3.89  0.  0.  0.
391  3.90  0.  0.  0.
392  3.91  0.  0.  0.
393  3.92  0.  0.  0.
394  3.93  0.  0.  0.
395  3.94  0.  0.  0.
396  3.95  0.  0.  0.
397  3.96  0.  0.  0.
398  3.97  0.  0.  0.
399  3.98  0.  0.  0.
400  3.99  0.  0.  0.
401  4.00  0.  0.  0.
402  4.01  0.  0.  0.
403  4.02  0.  0.  0.
404  4.03  0.  0.  0.
405  4.04  0.  0.  0.
406  4.05  0.  0.  0.
407  4.06  0.  0.  0.
408  4.07  0.  0.  0.
409  4.08  0.  0.  0.
410  4.09  0.  0.  0.
411  4.10  0.  0.  0.
412  4.11  0.  0.  0.
413  4.12  0.  0.  0.
414  4.13  0.  0.  0.
415  4.14  0.  0.  0.
416  4.15  0.  0.  0.
417  4.16  0.  0.  0.
418  4.17  0.  0.  0.
419  4.18  0.  0.  0.
420  4.19  0.  0.  0.
421  4.20  0.  0.  0.
422  4.21  0.  0.  0.
423  4.22  0.  0.  0.
424  4.23  0.  0.  0.
425  4.24  0.  0.  0.
426  4.25  0.  0.  0.
427  4.26  0.  0.  0.
428  4.27  0.  0.  0.
429  4.28  0.  0.  0.
430  4.29  0.  0.  0.
431  4.30  0.  0.  0.
432  4.31  0.  0.  0.
433  4.32  0.  0.  0.
434  4.33  0.  0.  0.
435  4.34  0.  0.  0.
436  4.35  0.  0.  0.
437  4.36  0.  0.  0.
438  4.37  0.  0.  0.
439  4.38  0.  0.  0.
440  4.39  0.  0.  0.
441  4.40  0.  0.  0.
442  4.41  0.  0.  0.
443  4.42  0.  0.  0.
444  4.43  0.  0.  0.
445  4.44  0.  0.  0.
446  4.45  0.  0.  0.
447  4.46  0.  0.  0.
448  4.47  0.  0.  0.
449  4.48  0.  0.  0.
450  4.49  0.  0.  0.
451  4.50  0.  0.  0.
452  4.51  0.  0.  0.
453  4.52  0.  0.  0.
454  4.53  0.  0.  0.
455  4.54  0.  0.  0.
456  4.55  0.  0.  0.
457  4.56  0.  0.  0.
458  4.57  0.  0.  0.
459  4.58  0.  0.  0.
460  4.59  0.  0.  0.
461  4.60  0.  0.  0.
462  4.61  0.  0.  0.
463  4.62  0.  0.  0.
464  4.63  0.  0.  0.
465  4.64  0.  0.  0.
466  4.65  0.  0.  0.
467  4.66  0.  0.  0.
468  4.67  0.  0.  0.
469  4.68  0.  0.  0.
470  4.69  0.  0.  0.
471  4.70  0.  0.  0.
472  4.71  0.  0.  0.
473  4.72  0.  0.  0.
474  4.73  0.  0.  0.
475  4.74  0.  0.  0.
476  4.75  0.  0.  0.
477  4.76  0.  0.  0.
478  4.77  0.  0.  0.
479  4.78  0.  0.  0.
480  4.79  0.  0.  0.
481  4.80  0.  0.  0.
482  4.81  0.  0.  0.
483  4.82  0.  0.  0.
484  4.83  0.  0.  0.
485  4.84  0.  0.  0.
486  4.85  0.  0.  0.
487  4.86  0.  0.  0.
488  4.87  0.  0.  0.
489  4.88  0.  0.  0.
490  4.89  0.  0.  0.
491  4.90  0.  0.  0.
492  4.91  0.  0.  0.
493  4.92  0.  0.  0.
494  4.93  0.  0.  0.
495  4.94  0.  0.  0.
496  4.95  0.  0.  0.
497  4.96  0.  0.  0.
498  4.97  0.  0.  0.
499  4.98  0.  0.  0.
500  4.99  0.  0.  0.
501  5.00  0.  0.  0.
502  5.01  0.  0.  0.
503  5.02  0.  0.  0.
504  5.03  0.  0.  0.
505  5.04  0.  0.  0.
506  5.05  0.  0.  0.
507  5.06  0.  0.  0.
508  5.07  0.  0.  0.
509  5.08  0.  0.  0.
510  5.09  0.  0.  0.
511  5.10  0.  0.  0.
512  5.11  0.  0.  0.
513  5.12  0.  0.  0.
514  5.13  0.  0.  0.
515  5.14  0.  0.  0.
516  5.15  0.  0.  0.
517  5.16  0.  0.  0.
518  5.17  0.  0.  0.
519  5.18  0.  0.  0.
520  5.19  0.  0.  0.
521  5.20  0.  0.  0.
522  5.21  0.  0.  0.
523  5.22  0.  0.  0.
524  5.23  0.  0.  0.
525  5.24  0.  0.  0.
526  5.25  0.  0.  0.
527  5.26  0.  0.  0.
528  5.27  0.  0.  0.
529  5.28  0.  0.  0.
530  5.29  0.  0.  0.
531  5.30  0.  0.  0.
532  5.31  0.  0.  0.
533  5.32  0.  0.  0.
534  5.33  0.  0.  0.
535  5.34  0.  0.  0.
536  5.35  0.  0.  0.
537  5.36  0.  0.  0.
538  5.37  0.  0.  0.
539  5.38  0.  0.  0.
540  5.39  0.  0.  0.
541  5.40  0.  0.  0.
542  5.41  0.  0.  0.
543  5.42  0.  0.  0.
544  5.43  0.  0.  0.
545  5.44  0.  0.  0.
546  5.45  0.  0.  0.
547  5.46  0.  0.  0.
548  5.47  0.  0.  0.
549  5.48  0.  0.  0.
550  5.49  0.  0.  0.
551  5.50  0.  0.  0.
552  5.51  0.  0.  0.
553  5.52  0.  0.  0.
554  5.53  0.  0.  0.
555  5.54  0.  0.  0.
556  5.55  0.  0.  0.
557  5.56  0.  0.  0.
558  5.57  0.  0.  0.
559  5.58  0.  0.  0.
560  5.59  0.  0.  0.
561  5.60  0.  0.  0.
562  5.61  0.  0.  0.
563  5.62  0.  0.  0.
564  5.63  0.  0.  0.
565  5.64  0.  0.  0.
566  5.65  0.  0.  0.
567  5.66  0.  0.  0.
568  5.67  0.  0.  0.
569  5.68  0.  0.  0.
570  5.69  0.  0.  0.
571  5.70  0.  0.  0.
572  5.71  0.  0.  0.
573  5.72  0.  0.  0.
574  5.73  0.  0.  0.
575  5.74  0.  0.  0.
576  5.75  0.  0.  0.
577  5.76  0.  0.  0.
578  5.77  0.  0.  0.
579  5.78  0.  0.  0.
580  5.79  0.  0.  0.
581  5.80  0.  0.  0.
582  5.81  0.  0.  0.
583  5.82  0.  0.  0.
584  5.83  0.  0.  0.
585  5.84  0.  0.  0.
586  5.85  0.  0.  0.
587  5.86  0.  0.  0.
588  5.87  0.  0.  0.
589  5.88  0.  0.  0.
590  5.89  0.  0.  0.
591  5.90  0.  0.  0.
592  5.91  0.  0.  0.
593  5.92  0.  0.  0.
594  5.93  0.  0.  0.
595  5.94  0.  0.  0.
596  5.95  0.  0.  0.
597  5.96  0.  0.  0.
598  5.97  0.  0.  0.
599  5.98  0.  0.  0.
600  5.99  0.  0.  0.
1                         6.7066106863300E+00  6.3087747703844E-01
1  0.0000000000000E+00  5.8031318639351E-09 -2.5812972148653E-08
2  1.0000000000000E-02  1.2561146723876E-03 -2.4367195623426E-03
3  2.0000000000000E-02  5.0134602525861E-03 -9.7024519719035E-03
4  3.0000000000000E-02  1.1239224356388E-02 -2.1664738581149E-02
5  4.0000000000000E-02  1.9879326044468E-02 -3.8105533903453E-02
6  5.0000000000000E-02  3.0859313578373E-02 -5.8725231690010E-02
7  6.0000000000000E-02  4.4085597910515E-02 -8.3148197782684E-02
8  7.0000000000000E-02  5.9446999055379E-02 -1.1092970833199E-01
9  8.0000000000000E-02  7.6816576685998E-02 -1.4156416615647E-01
10  9.0000000000000E-02  9.6053711023237E-02 -1.7449444450014E-01
11  1.0000000000000E-01  1.1700639543303E-01 -2.0912218664566E-01
12  1.1000000000000E-01  1.3951369820469E-01 -2.4481887213824E-01
13  1.2000000000000E-01  1.6340834782530E-01 -2.8093744609415E-01
14  1.3000000000000E-01  1.8851939374995E-01 -3.1682429746761E-01
15  1.4000000000000E-01  2.1467489324003E-01 -3.5183136543010E-01
16  1.5000000000000E-01  2.4170457432917E-01 -3.8532815030291E-01
17  1.6000000000000E-01  2.6944242539115E-01 -4.1671340683363E-01
18  1.7000000000000E-01  2.9772916311951E-01 -4.4542630300543E-01
19  1.8000000000000E-01  3.2641453296450E-01 -4.7095683692344E-01
20  1.9000000000000E-01  3.5535939916871E-01 -4.9285531747814E-01
21  2.0000000000000E-01  3.8443758544498E-01 -5.1074073121093E-01
22  2.1000000000000E-01  4.1353743198029E-01 -5.2430783781076E-01
23  2.2000000000000E-01  4.4256303974215E-01 -5.3333285959932E-01
24  2.3000000000000E-01  4.7143517891683E-01 -5.3767765581024E-01
25  2.4000000000000E-01  5.0009184461409E-01 -5.3729229998190E-01
26  2.5000000000000E-01  5.2848844961641E-01 -5.3221600787281E-01
27  2.6000000000000E-01  5.5659765081170E-01 -5.2257639345081E-01
28  2.7000000000000E-01  5.8440881290045E-01 -5.0858706116128E-01
29  2.8000000000000E-01  6.1192711988313E-01 -4.9054357328942E-01
30  2.9000000000000E-01  6.3917235158367E-01 -4.6881786124406E-01
31  3.0000000000000E-01  6.6617734892423E-01 -4.4385117845700E-01
32  3.1000000000000E-01  6.9298619771348E-01 -4.1614571978411E-01
33  3.2000000000000E-01  7.1965216623169E-01 -3.8625505731200E-01
34  3.3000000000000E-01  7.4623543678552E-01 -3.5477356485179E-01
35  3.4000000000000E-01  7.7280067556903E-01 -3.2232502272218E-01
36  3.5000000000000E-01  7.9941448852365E-01 -2.8955061032130E-01
37  3.6000000000000E-01  8.2614281337164E-01 -2.5709650615605E-01
38  3.7000000000000E-01  8.5304829955299E-01 -2.2560132319949E-01
39  3.8000000000000E-01  8.8018772838996E-01 -1.9568361151330E-01
40  3.9000000000000E-01  9.0760952541964E-01 -1.6792965990875E-01
41  4.0000000000000E-01  9.3535141547281E-01 -1.4288182400823E-01
42  4.1000000000000E-01  9.6343826875613E-01 -1.2102759947033E-01
43  4.2000000000000E-01  9.9188018295075E-01 -1.0278964648977E-01
44  4.3000000000000E-01  1.0206708422274E+00 -8.8516955190989E-02
45  4.4000000000000E-01  1.0497861891661E+00 -7.8477321482617E-02
46  4.5000000000000E-01  1.0791834399441E+00 -7.2851279678235E-02