Gd    ONCVPSP-4.0.1  r_core=   2.00348   1.60569   1.90986   1.60569
64.0000     18.0000      230112    zatom,zion,pspd
8      11   3     4   600     0    pspcod,pspxc,lmax,lloc,mmax,r2well
5.99000000  4.00000000  0.00000000    rchrg fchrg qchrg
2     2     2     2     0    nproj
1     1           extension_switch
0                         6.6559221096535E+00  5.3003827739906E-01
1  0.0000000000000E+00  9.9897368155411E-11 -4.1823045374145E-10
2  1.0000000000000E-02  4.1954240694680E-02 -1.6606457485646E-03
3  2.0000000000000E-02  8.3886374910321E-02 -3.3739028887703E-03
4  3.0000000000000E-02  1.2577409483164E-01 -5.1915120580731E-03
5  4.0000000000000E-02  1.6759469250175E-01 -7.1634824455679E-03
6  5.0000000000000E-02  2.0932486605296E-01 -9.3372511105289E-03
7  6.0000000000000E-02  2.5094053342808E-01 -1.1756872052997E-02
8  7.0000000000000E-02  2.9241665597077E-01 -1.4462244458232E-02
9  8.0000000000000E-02  3.3372707416357E-01 -1.7488389118626E-02
10  9.0000000000000E-02  3.7484435766913E-01 -2.0864781521829E-02
11  1.0000000000000E-01  4.1573967168529E-01 -2.4614749487673E-02
12  1.1000000000000E-01  4.5638266145881E-01 -2.8754942545069E-02
13  1.2000000000000E-01  4.9674135661837E-01 -3.3294879470578E-02
14  1.3000000000000E-01  5.3678209678566E-01 -3.8236579570403E-02
15  1.4000000000000E-01  5.7646947970643E-01 -4.3574282385867E-02
16  1.5000000000000E-01  6.1576633291387E-01 -4.9294259548417E-02
17  1.6000000000000E-01  6.5463370969560E-01 -5.5374721512828E-02
18  1.7000000000000E-01  6.9303090988666E-01 -6.1785820868168E-02
19  1.8000000000000E-01  7.3091552575567E-01 -6.8489752874183E-02
20  1.9000000000000E-01  7.6824351299274E-01 -7.5440952808507E-02
21  2.0000000000000E-01  8.0496928654787E-01 -8.2586388647227E-02
22  2.1000000000000E-01  8.4104584081102E-01 -8.9865946550030E-02
23  2.2000000000000E-01  8.7642489337067E-01 -9.7212905591178E-02
24  2.3000000000000E-01  9.1105705134111E-01 -1.0455449718133E-01
25  2.4000000000000E-01  9.4489199901009E-01 -1.1181254367154E-01
26  2.5000000000000E-01  9.7787870533272E-01 -1.1890416973124E-01
27  2.6000000000000E-01  1.0099656495841E+00 -1.2574257925563E-01
28  2.7000000000000E-01  1.0411010632874E+00 -1.3223788979362E-01
29  2.8000000000000E-01  1.0712331863541E+00 -1.3829801580434E-01
30  2.9000000000000E-01  1.1003105352155E+00 -1.4382959145498E-01
31  3.0000000000000E-01  1.1282821805871E+00 -1.4873892317331E-01
32  3.1000000000000E-01  1.1550980323904E+00 -1.5293296176866E-01
33  3.2000000000000E-01  1.1807091292706E+00 -1.5632028364286E-01
34  3.3000000000000E-01  1.2050679300779E+00 -1.5881207042856E-01
35  3.4000000000000E-01  1.2281286046458E+00 -1.6032307632142E-01
36  3.5000000000000E-01  1.2498473211817E+00 -1.6077257241507E-01
37  3.6000000000000E-01  1.2701825276016E+00 -1.6008525750494E-01
38  3.7000000000000E-01  1.2890952241785E+00 -1.5819212509672E-01
39  3.8000000000000E-01  1.3065492249403E+00 -1.5503127673748E-01
40  3.9000000000000E-01  1.3225114053456E+00 -1.5054867227698E-01
41  4.0000000000000E-01  1.3369519338799E+00 -1.4469880826125E-01
42  4.1000000000000E-01  1.3498444853558E+00 -1.3744531635231E-01
43  4.2000000000000E-01  1.3611664338633E+00 -1.2876147445404E-01
44  4.3000000000000E-01  1.3708990235000E+00 -1.1863062409206E-01
45  4.4000000000000E-01  1.3790275152098E+00 -1.0704648854269E-01
46  4.5000000000000E-01  1.3855413082830E+00 -9.4013387217625E-02
47  4.6000000000000E-01  1.3904340353021E+00 -7.9546342881147E-02
48  4.7000000000000E-01  1.3937036295624E+00 -6.3671079391810E-02
49  4.8000000000000E-01  1.3953523642599E+00 -4.6423908811237E-02
50  4.9000000000000E-01  1.3953868629962E+00 -2.7851507895707E-02
51  5.0000000000000E-01  1.3938180814249E+00 -8.0105851699738E-03
52  5.1000000000000E-01  1.3906612601342E+00  1.3032559034369E-02
53  5.2000000000000E-01  1.3859358491308E+00  3.5202576026175E-02
54  5.3000000000000E-01  1.3796654045599E+00  5.8415710995870E-02
55  5.4000000000000E-01  1.3718774585560E+00  8.2580538256407E-02
56  5.5000000000000E-01  1.3626033633754E+00  1.0759878263814E-01
57  5.6000000000000E-01  1.3518781112000E+00  1.3336621920278E-01
58  5.7000000000000E-01  1.3397401312319E+00  1.5977364252608E-01
59  5.8000000000000E-01  1.3262310659112E+00  1.8670789596729E-01
60  5.9000000000000E-01  1.3113955282796E+00  2.1405295060548E-01
61  6.0000000000000E-01  1.2952808426895E+00  2.4169102288664E-01
62  6.1000000000000E-01  1.2779367712073E+00  2.6950371949974E-01
63  6.2000000000000E-01  1.2594152281848E+00  2.9737319758977E-01
64  6.3000000000000E-01  1.2397699855803E+00  3.2518332812819E-01
65  6.4000000000000E-01  1.2190563716798E+00  3.5282085009842E-01
66  6.5000000000000E-01  1.1973309659234E+00  3.8017650312115E-01
67  6.6000000000000E-01  1.1746512925609E+00  4.0714612623964E-01
68  6.7000000000000E-01  1.1510755158540E+00  4.3363171081282E-01
69  6.8000000000000E-01  1.1266621395099E+00  4.5954239581841E-01
70  6.9000000000000E-01  1.1014697129708E+00  4.8479539434957E-01
71  7.0000000000000E-01  1.0755565470933E+00  5.0931684069235E-01
72  7.1000000000000E-01  1.0489804416441E+00  5.3304254808932E-01
73  7.2000000000000E-01  1.0217984268947E+00  5.5591866812496E-01
74  7.3000000000000E-01  9.9406652144528E-01  5.7790224359776E-01
75  7.4000000000000E-01  9.6583950822057E-01  5.9896164776755E-01
76  7.5000000000000E-01  9.3717073038610E-01  6.1907690397065E-01
77  7.6000000000000E-01  9.0811190871401E-01  6.3823988077181E-01
78  7.7000000000000E-01  8.7871298169836E-01  6.5645435905593E-01
79  7.8000000000000E-01  8.4902196947730E-01  6.7373596874371E-01
80  7.9000000000000E-01  8.1908486236837E-01  6.9011199412804E-01
81  8.0000000000000E-01  7.8894553456559E-01  7.0562104816203E-01
82  8.1000000000000E-01  7.5864568328607E-01  7.2031261736569E-01
83  8.2000000000000E-01  7.2822479339242E-01  7.3424648034877E-01
84  8.3000000000000E-01  6.9772012725788E-01  7.4749200425273E-01
85  8.4000000000000E-01  6.6716673938689E-01  7.6012732468491E-01
86  8.5000000000000E-01  6.3659751505743E-01  7.7223841593843E-01
87  8.6000000000000E-01  6.0604323201515E-01  7.8391805944831E-01
88  8.7000000000000E-01  5.7553264402629E-01  7.9526471951867E-01
89  8.8000000000000E-01  5.4509258488786E-01  8.0638133635309E-01
90  8.9000000000000E-01  5.1474809130251E-01  8.1737404732287E-01
91  9.0000000000000E-01  4.8452254285336E-01  8.2835084820599E-01
92  9.1000000000000E-01  4.5443781716213E-01  8.3942020681521E-01
93  9.2000000000000E-01  4.2451445818398E-01  8.5068964200182E-01
94  9.3000000000000E-01  3.9477185548531E-01  8.6226428146478E-01
95  9.4000000000000E-01  3.6522843226646E-01  8.7424541211345E-01
96  9.5000000000000E-01  3.3590183983137E-01  8.8672903692067E-01
97  9.6000000000000E-01  3.0680915616968E-01  8.9980445226278E-01
98  9.7000000000000E-01  2.7796708630369E-01  9.1355285967608E-01
99  9.8000000000000E-01  2.4939216206243E-01  9.2804602576632E-01
100  9.9000000000000E-01  2.2110093897683E-01  9.4334500369458E-01
101  1.0000000000000E+00  1.9311018804265E-01  9.5949892923427E-01
102  1.0100000000000E+00  1.6543708016943E-01  9.7654390385695E-01
103  1.0200000000000E+00  1.3809936122325E-01  9.9450197666725E-01
104  1.0300000000000E+00  1.1111551567641E-01  1.0133802362783E+00
105  1.0400000000000E+00  8.4504916995769E-02  1.0331700229083E+00
106  1.0500000000000E+00  5.8287963032107E-02  1.0538462700984E+00
107  1.0600000000000E+00  3.2486194812138E-02  1.0753669845094E+00
108  1.0700000000000E+00  7.1223972817857E-03  1.0976728712655E+00
109  1.0800000000000E+00 -1.7779319300172E-02  1.1206871112870E+00
110  1.0900000000000E+00 -4.2193458464955E-02  1.1443152959995E+00
111  1.1000000000000E+00 -6.6093098126950E-02  1.1684455237409E+00
112  1.1100000000000E+00 -8.9449873508880E-02  1.1929486611136E+00
113  1.1200000000000E+00 -1.1223398309289E-01  1.2176787714639E+00
114  1.1300000000000E+00 -1.3441421814861E-01  1.2424737116152E+00
115  1.1400000000000E+00 -1.5595801625283E-01  1.2671558969494E+00
116  1.1500000000000E+00 -1.7683153908715E-01  1.2915332339246E+00
117  1.1600000000000E+00 -1.9699977467876E-01  1.3154002181406E+00
118  1.1700000000000E+00 -2.1642666413754E-01  1.3385391951238E+00
119  1.1800000000000E+00 -2.3507525283831E-01  1.3607217800908E+00
120  1.1900000000000E+00 -2.5290786589954E-01  1.3817104320772E+00
121  1.2000000000000E+00 -2.6988630771958E-01  1.4012601769675E+00
122  1.2100000000000E+00 -2.8597208524406E-01  1.4191204731376E+00
123  1.2200000000000E+00 -3.0112665455423E-01  1.4350372126083E+00
124  1.2300000000000E+00 -3.1531169028060E-01  1.4487548498020E+00
125  1.2400000000000E+00 -3.2848937725747E-01  1.4600186491744E+00
126  1.2500000000000E+00 -3.4062272373737E-01  1.4685770421534E+00
127  1.2600000000000E+00 -3.5167589537612E-01  1.4741840829288E+00
128  1.2700000000000E+00 -3.6161456907394E-01  1.4766019916929E+00
129  1.2800000000000E+00 -3.7040630561221E-01  1.4756037728987E+00
130  1.2900000000000E+00 -3.7802093984989E-01  1.4709758949651E+00
131  1.3000000000000E+00 -3.8443098703737E-01  1.4625210165833E+00
132  1.3100000000000E+00 -3.8961206355795E-01  1.4500607433517E+00
133  1.3200000000000E+00 -3.9354332011261E-01  1.4334383968352E+00
134  1.3300000000000E+00 -3.9620788501633E-01  1.4125217763037E+00
135  1.3400000000000E+00 -3.9759331486770E-01  1.3872058913134E+00
136  1.3500000000000E+00 -3.9769204937410E-01  1.3574156409011E+00
137  1.3600000000000E+00 -3.9650186656405E-01  1.3231084124666E+00
138  1.3700000000000E+00 -3.9402633397883E-01  1.2842765703507E+00
139  1.3800000000000E+00 -3.9027525071060E-01  1.2409498006821E+00
140  1.3900000000000E+00 -3.8526507431887E-01  1.1931972751648E+00
141  1.4000000000000E+00 -3.7901932572263E-01  1.1411295921455E+00
142  1.4100000000000E+00 -3.7156896410665E-01  1.0849004484396E+00
143  1.4200000000000E+00 -3.6295272269996E-01  1.0247079899984E+00
144  1.4300000000000E+00 -3.5321739496732E-01  9.6079578352063E-01
145  1.4400000000000E+00 -3.4241805929064E-01  8.9345334448015E-01
146  1.4500000000000E+00 -3.3061822860593E-01  8.2301614977494E-01
147  1.4600000000000E+00 -3.1788990968361E-01  7.4986505519637E-01
148  1.4700000000000E+00 -3.0431355478858E-01  6.7442502914609E-01
149  1.4800000000000E+00 -2.8997788633201E-01  5.9716310449145E-01
150  1.4900000000000E+00 -2.7497957279740E-01  5.1858543999662E-01
151  1.5000000000000E+00 -2.5942273169944E-01  4.3923337144588E-01
152  1.5100000000000E+00 -2.4341823259617E-01  3.5967832029158E-01
153  1.5200000000000E+00 -2.2708277020831E-01  2.8051541434729E-01
154  1.5300000000000E+00 -2.1053767449799E-01  2.0235566066866E-01
155  1.5400000000000E+00 -1.9390742110694E-01  1.2581649525198E-01
156  1.5500000000000E+00 -1.7731780183859E-01  5.1510517465140E-02
157  1.5600000000000E+00 -1.6089371087344E-01 -1.9967800865624E-02
158  1.5700000000000E+00 -1.4475649813621E-01 -8.8057661046866E-02
159  1.5800000000000E+00 -1.2902083509441E-01 -1.5224999776917E-01
160  1.5900000000000E+00 -1.1379103324560E-01 -2.1210833536105E-01
161  1.6000000000000E+00 -9.9156856823557E-02 -2.6729207146688E-01
162  1.6100000000000E+00 -8.5188183984644E-02 -3.1758619972290E-01
163  1.6200000000000E+00 -7.1934349319453E-02 -3.6289992912114E-01
164  1.6300000000000E+00 -5.9433257281293E-02 -4.0320373682859E-01
165  1.6400000000000E+00 -4.7716889109408E-02 -4.3849263039466E-01
166  1.6500000000000E+00 -3.6810873455368E-02 -4.6878858851337E-01
167  1.6600000000000E+00 -2.6734488785722E-02 -4.9414024976895E-01
168  1.6700000000000E+00 -1.7500629169469E-02 -5.1462295375889E-01
169  1.6800000000000E+00 -9.1158182916937E-03 -5.3033856768596E-01
170  1.6900000000000E+00 -1.5802760451819E-03 -5.4141507259976E-01
171  1.7000000000000E+00  5.1119646946649E-03 -5.4800592451350E-01
172  1.7100000000000E+00  1.0972892208842E-02 -5.5028919613920E-01
173  1.7200000000000E+00  1.6020301414634E-02 -5.4846650011683E-01
174  1.7300000000000E+00  2.0277532554747E-02 -5.4276170279890E-01
175  1.7400000000000E+00  2.3773164964726E-02 -5.3341943695018E-01
176  1.7500000000000E+00  2.6540668301029E-02 -5.2070342422331E-01
177  1.7600000000000E+00  2.8618014000663E-02 -5.0489462002863E-01
178  1.7700000000000E+00  3.0047250154822E-02 -4.8628919534202E-01
179  1.7800000000000E+00  3.0874043302078E-02 -4.6519637143607E-01
180  1.7900000000000E+00  3.1147190972517E-02 -4.4193612501857E-01
181  1.8000000000000E+00  3.0918109124047E-02 -4.1683678270909E-01
182  1.8100000000000E+00  3.0240298833009E-02 -3.9023252476004E-01
183  1.8200000000000E+00  2.9168796855765E-02 -3.6246081914530E-01
184  1.8300000000000E+00  2.7759614794430E-02 -3.3385980761330E-01
185  1.8400000000000E+00  2.6069171772417E-02 -3.0476566614594E-01
186  1.8500000000000E+00  2.4153725601330E-02 -2.7550996260268E-01
187  1.8600000000000E+00  2.2068807430334E-02 -2.4641703434974E-01
188  1.8700000000000E+00  1.9868667322780E-02 -2.1780141786975E-01
189  1.8800000000000E+00  1.7605711568730E-02 -1.8996526335087E-01
190  1.8900000000000E+00  1.5330033751208E-02 -1.6319611395778E-01
191  1.9000000000000E+00  1.3088844933279E-02 -1.3776435274784E-01
192  1.9100000000000E+00  1.0924866490764E-02 -1.1391674998856E-01
193  1.9200000000000E+00  8.8753765346398E-03 -9.1872380966982E-02
194  1.9300000000000E+00  6.9774687569152E-03 -7.1841976133033E-02
195  1.9400000000000E+00  5.2639234652912E-03 -5.4012437797497E-02
196  1.9500000000000E+00  3.7623497304950E-03 -3.8543352848920E-02
197  1.9600000000000E+00  2.4950314652567E-03 -2.5566141782455E-02
198  1.9700000000000E+00  1.4788884315102E-03 -1.5185134009096E-02
199  1.9800000000000E+00  7.2406314427774E-04 -7.4636403368107E-03
200  1.9900000000000E+00  2.3561026543307E-04 -2.4426086502708E-03
201  2.0000000000000E+00  2.4132801322682E-05 -2.5226334630774E-04
202  2.0100000000000E+00 -8.0874465854522E-06  8.4797242235024E-05
203  2.0200000000000E+00  2.6736925266489E-06 -2.7893415832539E-05
204  2.03 -0.  0.
205  2.04 -0. -0.
206  2.05 -0. -0.
207  2.06  0.  0.
208  2.07  0.  0.
209  2.08  0.  0.
210  2.09  0.  0.
211  2.10  0.  0.
212  2.11  0.  0.
213  2.12  0.  0.
214  2.13  0.  0.
215  2.14  0.  0.
216  2.15  0.  0.
217  2.16  0.  0.
218  2.17  0.  0.
219  2.18  0.  0.
220  2.19  0.  0.
221  2.20  0.  0.
222  2.21  0.  0.
223  2.22  0.  0.
224  2.23  0.  0.
225  2.24  0.  0.
226  2.25  0.  0.
227  2.26  0.  0.
228  2.27  0.  0.
229  2.28  0.  0.
230  2.29  0.  0.
231  2.30  0.  0.
232  2.31  0.  0.
233  2.32  0.  0.
234  2.33  0.  0.
235  2.34  0.  0.
236  2.35  0.  0.
237  2.36  0.  0.
238  2.37  0.  0.
239  2.38  0.  0.
240  2.39  0.  0.
241  2.40  0.  0.
242  2.41  0.  0.
243  2.42  0.  0.
244  2.43  0.  0.
245  2.44  0.  0.
246  2.45  0.  0.
247  2.46  0.  0.
248  2.47  0.  0.
249  2.48  0.  0.
250  2.49  0.  0.
251  2.50  0.  0.
252  2.51  0.  0.
253  2.52  0.  0.
254  2.53  0.  0.
255  2.54  0.  0.
256  2.55  0.  0.
257  2.56  0.  0.
258  2.57  0.  0.
259  2.58  0.  0.
260  2.59  0.  0.
261  2.60  0.  0.
262  2.61  0.  0.
263  2.62  0.  0.
264  2.63  0.  0.
265  2.64  0.  0.
266  2.65  0.  0.
267  2.66  0.  0.
268  2.67  0.  0.
269  2.68  0.  0.
270  2.69  0.  0.
271  2.70  0.  0.
272  2.71  0.  0.
273  2.72  0.  0.
274  2.73  0.  0.
275  2.74  0.  0.
276  2.75  0.  0.
277  2.76  0.  0.
278  2.77  0.  0.
279  2.78  0.  0.
280  2.79  0.  0.
281  2.80  0.  0.
282  2.81  0.  0.
283  2.82  0.  0.
284  2.83  0.  0.
285  2.84  0.  0.
286  2.85  0.  0.
287  2.86  0.  0.
288  2.87  0.  0.
289  2.88  0.  0.
290  2.89  0.  0.
291  2.90  0.  0.
292  2.91  0.  0.
293  2.92  0.  0.
294  2.93  0.  0.
295  2.94  0.  0.
296  2.95  0.  0.
297  2.96  0.  0.
298  2.97  0.  0.
299  2.98  0.  0.
300  2.99  0.  0.
301  3.00  0.  0.
302  3.01  0.  0.
303  3.02  0.  0.
304  3.03  0.  0.
305  3.04  0.  0.
306  3.05  0.  0.
307  3.06  0.  0.
308  3.07  0.  0.
309  3.08  0.  0.
310  3.09  0.  0.
311  3.10  0.  0.
312  3.11  0.  0.
313  3.12  0.  0.
314  3.13  0.  0.
315  3.14  0.  0.
316  3.15  0.  0.
317  3.16  0.  0.
318  3.17  0.  0.
319  3.18  0.  0.
320  3.19  0.  0.
321  3.20  0.  0.
322  3.21  0.  0.
323  3.22  0.  0.
324  3.23  0.  0.
325  3.24  0.  0.
326  3.25  0.  0.
327  3.26  0.  0.
328  3.27  0.  0.
329  3.28  0.  0.
330  3.29  0.  0.
331  3.30  0.  0.
332  3.31  0.  0.
333  3.32  0.  0.
334  3.33  0.  0.
335  3.34  0.  0.
336  3.35  0.  0.
337  3.36  0.  0.
338  3.37  0.  0.
339  3.38  0.  0.
340  3.39  0.  0.
341  3.40  0.  0.
342  3.41  0.  0.
343  3.42  0.  0.
344  3.43  0.  0.
345  3.44  0.  0.
346  3.45  0.  0.
347  3.46  0.  0.
348  3.47  0.  0.
349  3.48  0.  0.
350  3.49  0.  0.
351  3.50  0.  0.
352  3.51  0.  0.
353  3.52  0.  0.
354  3.53  0.  0.
355  3.54  0.  0.
356  3.55  0.  0.
357  3.56  0.  0.
358  3.57  0.  0.
359  3.58  0.  0.
360  3.59  0.  0.
361  3.60  0.  0.
362  3.61  0.  0.
363  3.62  0.  0.
364  3.63  0.  0.
365  3.64  0.  0.
366  3.65  0.  0.
367  3.66  0.  0.
368  3.67  0.  0.
369  3.68  0.  0.
370  3.69  0.  0.
371  3.70  0.  0.
372  3.71  0.  0.
373  3.72  0.  0.
374  3.73  0.  0.
375  3.74  0.  0.
376  3.75  0.  0.
377  3.76  0.  0.
378  3.77  0.  0.
379  3.78  0.  0.
380  3.79  0.  0.
381  3.80  0.  0.
382  3.81  0.  0.
383  3.82  0.  0.
384  3.83  0.  0.
385  3.84  0.  0.
386  3.85  0.  0.
387  3.86  0.  0.
388  3.87  0.  0.
389  3.88  0.  0.
390  3.89  0.  0.
391  3.90  0.  0.
392  3.91  0.  0.
393  3.92  0.  0.
394  3.93  0.  0.
395  3.94  0.  0.
396  3.95  0.  0.
397  3.96  0.  0.
398  3.97  0.  0.
399  3.98  0.  0.
400  3.99  0.  0.
401  4.00  0.  0.
402  4.01  0.  0.
403  4.02  0.  0.
404  4.03  0.  0.
405  4.04  0.  0.
406  4.05  0.  0.
407  4.06  0.  0.
408  4.07  0.  0.
409  4.08  0.  0.
410  4.09  0.  0.
411  4.10  0.  0.
412  4.11  0.  0.
413  4.12  0.  0.
414  4.13  0.  0.
415  4.14  0.  0.
416  4.15  0.  0.
417  4.16  0.  0.
418  4.17  0.  0.
419  4.18  0.  0.
420  4.19  0.  0.
421  4.20  0.  0.
422  4.21  0.  0.
423  4.22  0.  0.
424  4.23  0.  0.
425  4.24  0.  0.
426  4.25  0.  0.
427  4.26  0.  0.
428  4.27  0.  0.
429  4.28  0.  0.
430  4.29  0.  0.
431  4.30  0.  0.
432  4.31  0.  0.
433  4.32  0.  0.
434  4.33  0.  0.
435  4.34  0.  0.
436  4.35  0.  0.
437  4.36  0.  0.
438  4.37  0.  0.
439  4.38  0.  0.
440  4.39  0.  0.
441  4.40  0.  0.
442  4.41  0.  0.
443  4.42  0.  0.
444  4.43  0.  0.
445  4.44  0.  0.
446  4.45  0.  0.
447  4.46  0.  0.
448  4.47  0.  0.
449  4.48  0.  0.
450  4.49  0.  0.
451  4.50  0.  0.
452  4.51  0.  0.
453  4.52  0.  0.
454  4.53  0.  0.
455  4.54  0.  0.
456  4.55  0.  0.
457  4.56  0.  0.
458  4.57  0.  0.
459  4.58  0.  0.
460  4.59  0.  0.
461  4.60  0.  0.
462  4.61  0.  0.
463  4.62  0.  0.
464  4.63  0.  0.
465  4.64  0.  0.
466  4.65  0.  0.
467  4.66  0.  0.
468  4.67  0.  0.
469  4.68  0.  0.
470  4.69  0.  0.
471  4.70  0.  0.
472  4.71  0.  0.
473  4.72  0.  0.
474  4.73  0.  0.
475  4.74  0.  0.
476  4.75  0.  0.
477  4.76  0.  0.
478  4.77  0.  0.
479  4.78  0.  0.
480  4.79  0.  0.
481  4.80  0.  0.
482  4.81  0.  0.
483  4.82  0.  0.
484  4.83  0.  0.
485  4.84  0.  0.
486  4.85  0.  0.
487  4.86  0.  0.
488  4.87  0.  0.
489  4.88  0.  0.
490  4.89  0.  0.
491  4.90  0.  0.
492  4.91  0.  0.
493  4.92  0.  0.
494  4.93  0.  0.
495  4.94  0.  0.
496  4.95  0.  0.
497  4.96  0.  0.
498  4.97  0.  0.
499  4.98  0.  0.
500  4.99  0.  0.
501  5.00  0.  0.
502  5.01  0.  0.
503  5.02  0.  0.
504  5.03  0.  0.
505  5.04  0.  0.
506  5.05  0.  0.
507  5.06  0.  0.
508  5.07  0.  0.
509  5.08  0.  0.
510  5.09  0.  0.
511  5.10  0.  0.
512  5.11  0.  0.
513  5.12  0.  0.
514  5.13  0.  0.
515  5.14  0.  0.
516  5.15  0.  0.
517  5.16  0.  0.
518  5.17  0.  0.
519  5.18  0.  0.
520  5.19  0.  0.
521  5.20  0.  0.
522  5.21  0.  0.
523  5.22  0.  0.
524  5.23  0.  0.
525  5.24  0.  0.
526  5.25  0.  0.
527  5.26  0.  0.
528  5.27  0.  0.
529  5.28  0.  0.
530  5.29  0.  0.
531  5.30  0.  0.
532  5.31  0.  0.
533  5.32  0.  0.
534  5.33  0.  0.
535  5.34  0.  0.
536  5.35  0.  0.
537  5.36  0.  0.
538  5.37  0.  0.
539  5.38  0.  0.
540  5.39  0.  0.
541  5.40  0.  0.
542  5.41  0.  0.
543  5.42  0.  0.
544  5.43  0.  0.
545  5.44  0.  0.
546  5.45  0.  0.
547  5.46  0.  0.
548  5.47  0.  0.
549  5.48  0.  0.
550  5.49  0.  0.
551  5.50  0.  0.
552  5.51  0.  0.
553  5.52  0.  0.
554  5.53  0.  0.
555  5.54  0.  0.
556  5.55  0.  0.
557  5.56  0.  0.
558  5.57  0.  0.
559  5.58  0.  0.
560  5.59  0.  0.
561  5.60  0.  0.
562  5.61  0.  0.
563  5.62  0.  0.
564  5.63  0.  0.
565  5.64  0.  0.
566  5.65  0.  0.
567  5.66  0.  0.
568  5.67  0.  0.
569  5.68  0.  0.
570  5.69  0.  0.
571  5.70  0.  0.
572  5.71  0.  0.
573  5.72  0.  0.
574  5.73  0.  0.
575  5.74  0.  0.
576  5.75  0.  0.
577  5.76  0.  0.
578  5.77  0.  0.
579  5.78  0.  0.
580  5.79  0.  0.
581  5.80  0.  0.
582  5.81  0.  0.
583  5.82  0.  0.
584  5.83  0.  0.
585  5.84  0.  0.
586  5.85  0.  0.
587  5.86  0.  0.
588  5.87  0.  0.
589  5.88  0.  0.
590  5.89  0.  0.
591  5.90  0.  0.
592  5.91  0.  0.
593  5.92  0.  0.
594  5.93  0.  0.
595  5.94  0.  0.
596  5.95  0.  0.
597  5.96  0.  0.
598  5.97  0.  0.
599  5.98  0.  0.
600  5.99  0.  0.
1                         5.1438657709555E+00  1.7110394340140E-01
1  0.0000000000000E+00  5.1862849986817E-09 -7.5556585821257E-08
2  1.0000000000000E-02  1.3380046944525E-03 -6.1527787243332E-03
3  2.0000000000000E-02  5.3414740712609E-03 -2.4484101780915E-02
4  3.0000000000000E-02  1.1978938569138E-02 -5.4615322678474E-02
5  4.0000000000000E-02  2.1198494410694E-02 -9.5923296070330E-02
6  5.0000000000000E-02  3.2928611268584E-02 -1.4755212257123E-01
7  6.0000000000000E-02  4.7079242059348E-02 -2.0842928759410E-01
8  7.0000000000000E-02  6.3543214396445E-02 -2.7728589695658E-01
9  8.0000000000000E-02  8.2197878047741E-02 -3.5268063645045E-01
10  9.0000000000000E-02  1.0290697803627E-01 -4.3302701381004E-01
11  1.0000000000000E-01  1.2552271888416E-01 -5.1662338080613E-01
12  1.1000000000000E-01  1.4988798200611E-01 -6.0168518164614E-01
13  1.2000000000000E-01  1.7583865547659E-01 -6.8637883241934E-01
14  1.3000000000000E-01  2.0320603337577E-01 -7.6885660574874E-01
15  1.4000000000000E-01  2.3181924070238E-01 -8.4729187566511E-01
16  1.5000000000000E-01  2.6150763944980E-01 -9.1991407035599E-01
17  1.6000000000000E-01  2.9210317188322E-01 -9.8504268501131E-01
18  1.7000000000000E-01  3.2344259832312E-01 -1.0411197234076E+00
19  1.8000000000000E-01  3.5536958881086E-01 -1.0867399648628E+00
20  1.9000000000000E-01  3.8773663086747E-01 -1.1206784922451E+00
21  2.0000000000000E-01  4.2040671910583E-01 -1.1419149661409E+00
22  2.1000000000000E-01  4.5325479665210E-01 -1.1496541891807E+00
23  2.2000000000000E-01  4.8616892309839E-01 -1.1433425718256E+00
24  2.3000000000000E-01  5.1905114895573E-01 -1.1226801854239E+00
25  2.4000000000000E-01  5.5181808220728E-01 -1.0876281686905E+00
26  2.5000000000000E-01  5.8440113847106E-01 -1.0384113384988E+00
27  2.6000000000000E-01  6.1674647235932E-01 -9.7551594346397E-01
28  2.7000000000000E-01  6.4881459375387E-01 -8.9968258763905E-01
29  2.8000000000000E-01  6.8057967878817E-01 -8.1189444013110E-01
30  2.9000000000000E-01  7.1202859122380E-01 -7.1336093295816E-01
31  3.0000000000000E-01  7.4315963551970E-01 -6.0549723242998E-01
32  3.1000000000000E-01  7.7398106811079E-01 -4.8989984722685E-01
33  3.2000000000000E-01  8.0450939813950E-01 -3.6831880774927E-01
34  3.3000000000000E-01  8.3476751302910E-01 -2.4262691490104E-01
35  3.4000000000000E-01  8.6478266777129E-01 -1.1478661108038E-01
36  3.5000000000000E-01  8.9458437955530E-01  1.3184929220926E-02
37  3.6000000000000E-01  9.2420227133745E-01  1.3925185800250E-01
38  3.7000000000000E-01  9.5366390909871E-01  2.6139620795942E-01
39  3.8000000000000E-01  9.8299267783941E-01  3.7765427825879E-01
40  3.9000000000000E-01  1.0122057408055E+00  4.8615218945069E-01
41  4.0000000000000E-01  1.0413121250375E+00  5.8513995875953E-01
42  4.1000000000000E-01  1.0703109741037E+00  6.7302347253774E-01
43  4.2000000000000E-01  1.0991900058645E+00  7.4839376960160E-01
44  4.3000000000000E-01  1.1279242093637E+00  8.1005309685707E-01
45  4.4000000000000E-01  1.1564748105282E+00  8.5703725620854E-01
46  4.5000000000000E-01  1.1847885313557E+00  8.8863382819427E-01
47  4.6000000000000E-01  1.2127971617748E+00  9.0439593190705E-01
48  4.7000000000000E-01  1.2404174574726E+00  9.0415126120487E-01
49  4.8000000000000E-01  1.2675513708103E+00  8.8800622252907E-01
50  4.9000000000000E-01  1.2940866156057E+00  8.5634508828500E-01
51  5.0000000000000E-01  1.3198975601643E+00  8.0982417008311E-01
52  5.1000000000000E-01  1.3448464366142E+00  7.4936110654782E-01
53  5.2000000000000E-01  1.3687848484605E+00  6.7611944921887E-01
54  5.3000000000000E-01  1.3915555524356E+00  5.9148881567724E-01
55  5.4000000000000E-01  1.4129944853010E+00  4.9706095985255E-01
56  5.5000000000000E-01  1.4329330013493E+00  3.9460218402856E-01
57  5.6000000000000E-01  1.4512002820589E+00  2.8602258398656E-01
58  5.7000000000000E-01  1.4676258757606E+00  1.7334267677875E-01
59  5.8000000000000E-01  1.4820423223350E+00  5.8658008731059E-02
60  5.9000000000000E-01  1.4942878159577E+00 -5.5897621455333E-02
61  6.0000000000000E-01  1.5042088577553E+00 -1.6818966389559E-01
62  6.1000000000000E-01  1.5116628499854E+00 -2.7612036868070E-01
63  6.2000000000000E-01  1.5165205839933E+00 -3.7766571124151E-01
64  6.3000000000000E-01  1.5186685757330E+00 -4.7091102703956E-01
65  6.4000000000000E-01  1.5180112050407E+00 -5.5408471373051E-01
66  6.5000000000000E-01  1.5144726180760E+00 -6.2558939368929E-01
67  6.6000000000000E-01  1.5079983563416E+00 -6.8402997563436E-01
68  6.7000000000000E-01  1.4985566803880E+00 -7.2823811019732E-01
69  6.8000000000000E-01  1.4861395616172E+00 -7.5729259964020E-01
70  6.9000000000000E-01  1.4707633214274E+00 -7.7053539532976E-01
71  7.0000000000000E-01  1.4524689031769E+00 -7.6758289668770E-01
72  7.1000000000000E-01  1.4313217689811E+00 -7.4833235068922E-01
73  7.2000000000000E-01  1.4074114200670E+00 -7.1296324000037E-01
74  7.3000000000000E-01  1.3808505461705E+00 -6.6193363890125E-01
75  7.4000000000000E-01  1.3517738161540E+00 -5.9597160755900E-01
76  7.5000000000000E-01  1.3203363285066E+00 -5.1606178530231E-01
77  7.6000000000000E-01  1.2867117465610E+00 -4.2342743066329E-01
78  7.7000000000000E-01  1.2510901489953E+00 -3.1950823847186E-01
79  7.8000000000000E-01  1.2136756313700E+00 -2.0593434070487E-01
80  7.9000000000000E-01  1.1746836990014E+00 -8.4496966690341E-02
81  8.0000000000000E-01  1.1343384952838E+00  4.2883701611494E-02
82  8.1000000000000E-01  1.0928699125849E+00  1.7419289329915E-01
83  8.2000000000000E-01  1.0505106349921E+00  3.0735720581556E-01
84  8.3000000000000E-01  1.0074931634340E+00  4.4028150255506E-01
85  8.4000000000000E-01  9.6404687402038E-01  5.7088608164677E-01
86  8.5000000000000E-01  9.2039515982978E-01  6.9714344321338E-01
87  8.6000000000000E-01  8.7675270482839E-01  8.1711399120291E-01
88  8.7000000000000E-01  8.3332293616481E-01  9.2898002686996E-01
89  8.8000000000000E-01  7.9029569778770E-01  1.0310774237277E+00
90  8.9000000000000E-01  7.4784518424419E-01  1.1219244176836E+00
91  9.0000000000000E-01  7.0612816870927E-01  1.2002470002593E+00
92  9.1000000000000E-01  6.6528255386015E-01  1.2650004662715E+00
93  9.2000000000000E-01  6.2542626824669E-01  1.3153867388929E+00
94  9.3000000000000E-01  5.8665652443059E-01  1.3508671732963E+00
95  9.4000000000000E-01  5.4904944849302E-01  1.3711706236150E+00
96  9.5000000000000E-01  5.1266008366604E-01  1.3762966451770E+00
97  9.6000000000000E-01  4.7752276395835E-01  1.3665137932590E+00
98  9.7000000000000E-01  4.4365184684899E-01  1.3423530692727E+00
99  9.8000000000000E-01  4.1104278754138E-01  1.3045966537015E+00
100  9.9000000000000E-01  3.7967353103114E-01  1.2542621505601E+00
101  1.0000000000000E+00  3.4950619245510E-01  1.1925826491643E+00
102  1.0100000000000E+00  3.2048899097323E-01  1.1209829839800E+00
103  1.0200000000000E+00  2.9255839788134E-01  1.0410526409664E+00
104  1.0300000000000E+00  2.6564145584672E-01  9.5451581790959E-01
105  1.0400000000000E+00  2.3965822317294E-01  8.6319919569820E-01
106  1.0500000000000E+00  2.1452429488927E-01  7.6899801641413E-01
107  1.0600000000000E+00  1.9015335125937E-01  6.7384109192339E-01
108  1.0700000000000E+00  1.6645968403871E-01  5.7965538280671E-01
109  1.0800000000000E+00  1.4336065147625E-01  4.8833079182072E-01
110  1.0900000000000E+00  1.2077901464817E-01  4.0168580855740E-01
111  1.1000000000000E+00  9.8645110183064E-02  3.2143462288009E-01
112  1.1100000000000E+00  7.6898817754480E-02  2.4915629440115E-01
113  1.1200000000000E+00  5.5491284799555E-02  1.8626652447429E-01
114  1.1300000000000E+00  3.4386375697848E-02  1.3399252670850E-01
115  1.1400000000000E+00  1.3561818020348E-02  9.3351432857539E-02
116  1.1500000000000E+00 -6.9899756782078E-03  6.5132604400443E-02
117  1.1600000000000E+00 -2.7261425800731E-02  4.9884147343787E-02
118  1.1700000000000E+00 -4.7229652155166E-02  4.7903850316231E-02
119  1.1800000000000E+00 -6.6856691044106E-02  5.9234685354115E-02
120  1.1900000000000E+00 -8.6090058473086E-02  8.3664928201284E-02
121  1.2000000000000E+00 -1.0486364844569E-01  1.2073287263475E-01
122  1.2100000000000E+00 -1.2309894899783E-01  1.6973603176407E-01
123  1.2200000000000E+00 -1.4070655272580E-01  2.2974464132677E-01
124  1.2300000000000E+00 -1.5758793308023E-01  2.9961920564906E-01
125  1.2400000000000E+00 -1.7363745282088E-01  3.7803175864314E-01
126  1.2500000000000E+00 -1.8874456680024E-01  4.6349045062637E-01
127  1.2600000000000E+00 -2.0279617773446E-01  5.5436701769520E-01
128  1.2700000000000E+00 -2.1567910092741E-01  6.4892664538888E-01
129  1.2800000000000E+00 -2.2728259203965E-01  7.4535970243758E-01
130  1.2900000000000E+00 -2.3750089098939E-01  8.4181479430286E-01
131  1.3000000000000E+00 -2.4623573494292E-01  9.3643257027601E-01
132  1.3100000000000E+00 -2.5339879407771E-01  1.0273797119212E+00
133  1.3200000000000E+00 -2.5891398537503E-01  1.1128825346793E+00
134  1.3300000000000E+00 -2.6271962206520E-01  1.1912596480299E+00