Gd    ONCVPSP-4.0.1  r_core=   2.00348   1.60569   1.90986   1.60569
64.0000     18.0000      241101    zatom,zion,pspd
8      11   3     4   600     0    pspcod,pspxc,lmax,lloc,mmax,r2well
5.99000000  4.00000000  0.00000000    rchrg fchrg qchrg
2     2     2     2     0    nproj
1     1           extension_switch
0                         6.6462338842515E+00  5.1622477831698E-01
1  0.0000000000000E+00  9.7835683998682E-11 -4.1469996187038E-10
2  1.0000000000000E-02  4.2072845842957E-02 -2.0945026499866E-03
3  2.0000000000000E-02  8.4122883214885E-02 -4.2394671639106E-03
4  3.0000000000000E-02  1.2612710800482E-01 -6.4844985644053E-03
5  4.0000000000000E-02  1.6806212729928E-01 -8.8774981455258E-03
6  5.0000000000000E-02  2.0990397114929E-01 -1.1463836387152E-02
7  6.0000000000000E-02  2.5162791166945E-01 -1.4285555307085E-02
8  7.0000000000000E-02  2.9320829179705E-01 -1.7380609572043E-02
9  8.0000000000000E-02  3.3461836594175E-01 -2.0782155274039E-02
10  9.0000000000000E-02  3.7583015463539E-01 -2.4517894768087E-02
11  1.0000000000000E-01  4.1681431514964E-01 -2.8609485366183E-02
12  1.1000000000000E-01  4.5754002988733E-01 -3.3072018996941E-02
13  1.2000000000000E-01  4.9797491417198E-01 -3.7913579177375E-02
14  1.3000000000000E-01  5.3808494486321E-01 -4.3134880810453E-02
15  1.4000000000000E-01  5.7783441101297E-01 -4.8728997428439E-02
16  1.5000000000000E-01  6.1718588755256E-01 -5.4681179555785E-02
17  1.6000000000000E-01  6.5610023276473E-01 -6.0968766877390E-02
18  1.7000000000000E-01  6.9453661005101E-01 -6.7561195877354E-02
19  1.8000000000000E-01  7.3245253425475E-01 -7.4420103571246E-02
20  1.9000000000000E-01  7.6980394254701E-01 -8.1499526902145E-02
21  2.0000000000000E-01  8.0654528962799E-01 -8.8746196317534E-02
22  2.1000000000000E-01  8.4262966674447E-01 -9.6099921002345E-02
23  2.2000000000000E-01  8.7800894377478E-01 -1.0349406222371E-01
24  2.3000000000000E-01  9.1263393339096E-01 -1.1085609025549E-01
25  2.4000000000000E-01  9.4645457607486E-01 -1.1810821940706E-01
26  2.5000000000000E-01  9.7942014454287E-01 -1.2516811478971E-01
27  2.6000000000000E-01  1.0114794659260E+00 -1.3194966362641E-01
28  2.7000000000000E-01  1.0425811598596E+00 -1.3836380315479E-01
29  2.8000000000000E-01  1.0726738904607E+00 -1.4431939649688E-01
30  2.9000000000000E-01  1.1017066300186E+00 -1.4972414728164E-01
31  3.0000000000000E-01  1.1296289320842E+00 -1.5448554331237E-01
32  3.1000000000000E-01  1.1563912115373E+00 -1.5851181917750E-01
33  3.2000000000000E-01  1.1819450291188E+00 -1.6171292741498E-01
34  3.3000000000000E-01  1.2062433778496E+00 -1.6400150766074E-01
35  3.4000000000000E-01  1.2292409687241E+00 -1.6529384314289E-01
36  3.5000000000000E-01  1.2508945130463E+00 -1.6551079392841E-01
37  3.6000000000000E-01  1.2711629987951E+00 -1.6457869648600E-01
38  3.7000000000000E-01  1.2900079584402E+00 -1.6243021939957E-01
39  3.8000000000000E-01  1.3073937256964E+00 -1.5900516544671E-01
40  3.9000000000000E-01  1.3232876787924E+00 -1.5425121074525E-01
41  4.0000000000000E-01  1.3376604679432E+00 -1.4812457226068E-01
42  4.1000000000000E-01  1.3504862248550E+00 -1.4059059565721E-01
43  4.2000000000000E-01  1.3617427522448E+00 -1.3162425625386E-01
44  4.3000000000000E-01  1.3714116915415E+00 -1.2121056671140E-01
45  4.4000000000000E-01  1.3794786671296E+00 -1.0934488601476E-01
46  4.5000000000000E-01  1.3859334057115E+00 -9.6033125320603E-02
47  4.6000000000000E-01  1.3907698295945E+00 -8.1291847301608E-02
48  4.7000000000000E-01  1.3939861229490E+00 -6.5148256725679E-02
49  4.8000000000000E-01  1.3955847703359E+00 -4.7640081149431E-02
50  4.9000000000000E-01  1.3955725670606E+00 -2.8815341769374E-02
51  5.0000000000000E-01  1.3939606011730E+00 -8.7320156480465E-03
52  5.1000000000000E-01  1.3907642072021E+00  1.2542408295313E-02
53  5.2000000000000E-01  1.3860028919743E+00  3.4931475981364E-02
54  5.3000000000000E-01  1.3797002331311E+00  5.8350412875540E-02
55  5.4000000000000E-01  1.3718837512168E+00  8.2706860928615E-02
56  5.5000000000000E-01  1.3625847564520E+00  1.0790170093875E-01
57  5.6000000000000E-01  1.3518381715505E+00  1.3382995254041E-01
58  5.7000000000000E-01  1.3396823321562E+00  1.6038174311862E-01
59  5.8000000000000E-01  1.3261587666861E+00  1.8744333612311E-01
60  5.9000000000000E-01  1.3113119575553E+00  2.1489820852593E-01
61  6.0000000000000E-01  1.2951890859293E+00  2.4262816653623E-01
62  6.1000000000000E-01  1.2778397622963E+00  2.7051448816468E-01
63  6.2000000000000E-01  1.2593157452793E+00  2.9843908082461E-01
64  6.3000000000000E-01  1.2396706512063E+00  3.2628564187170E-01
65  6.4000000000000E-01  1.2189596570325E+00  3.5394080982284E-01
66  6.5000000000000E-01  1.1972391992581E+00  3.8129529396263E-01
67  6.6000000000000E-01  1.1745666715061E+00  4.0824497014053E-01
68  6.7000000000000E-01  1.1510001234211E+00  4.3469193078619E-01
69  6.8000000000000E-01  1.1265979635165E+00  4.6054547752240E-01
70  6.9000000000000E-01  1.1014186685408E+00  4.8572304523090E-01
71  7.0000000000000E-01  1.0755205018495E+00  5.1015104702347E-01
72  7.1000000000000E-01  1.0489612431604E+00  5.3376563028225E-01
73  7.2000000000000E-01  1.0217979319366E+00  5.5651333475399E-01
74  7.3000000000000E-01  9.9408662648920E-01  5.7835164460282E-01
75  7.4000000000000E-01  9.6588218071529E-01  5.9924942733898E-01
76  7.5000000000000E-01  9.3723804019356E-01  6.1918725363315E-01
77  7.6000000000000E-01  9.0820605915188E-01  6.3815759319011E-01
78  7.7000000000000E-01  8.7883633959618E-01  6.5616488307638E-01
79  7.8000000000000E-01  8.4917709365621E-01  6.7322546616378E-01
80  7.9000000000000E-01  8.1927452995947E-01  6.8936739865079E-01
81  8.0000000000000E-01  7.8917276459540E-01  7.0463012694172E-01
82  8.1000000000000E-01  7.5891375697804E-01  7.1906403548850E-01
83  8.2000000000000E-01  7.2853727066209E-01  7.3272986851466E-01
84  8.3000000000000E-01  6.9808085891523E-01  7.4569802983484E-01
85  8.4000000000000E-01  6.6757987460262E-01  7.5804776624034E-01
86  8.5000000000000E-01  6.3706750370015E-01  7.6986624113022E-01
87  8.6000000000000E-01  6.0657482152320E-01  7.8124750621460E-01
88  8.7000000000000E-01  5.7613087054060E-01  7.9229138019152E-01
89  8.8000000000000E-01  5.4576275844039E-01  8.0310224428892E-01
90  8.9000000000000E-01  5.1549577492779E-01  8.1378776546016E-01
91  9.0000000000000E-01  4.8535352556764E-01  8.2445755881569E-01
92  9.1000000000000E-01  4.5535808083463E-01  8.3522180155728E-01
93  9.2000000000000E-01  4.2553013840760E-01  8.4618981124978E-01
94  9.3000000000000E-01  3.9588919663772E-01  8.5746860171142E-01
95  9.4000000000000E-01  3.6645373703748E-01  8.6916143012787E-01
96  9.5000000000000E-01  3.3724141357618E-01  8.8136634919026E-01
97  9.6000000000000E-01  3.0826924653026E-01  8.9417477812979E-01
98  9.7000000000000E-01  2.7955381862074E-01  9.0767010646526E-01
99  9.8000000000000E-01  2.5111147117672E-01  9.2192634410492E-01
100  9.9000000000000E-01  2.2295849809098E-01  9.3700683114752E-01
101  1.0000000000000E+00  1.9511133538079E-01  9.5296302032105E-01
102  1.0100000000000E+00  1.6758674423232E-01  9.6983334448383E-01
103  1.0200000000000E+00  1.4040198548926E-01  9.8764218100133E-01
104  1.0300000000000E+00  1.1357498364306E-01  1.0063989241115E+00
105  1.0400000000000E+00  8.7124478492070E-02  1.0260971756119E+00
106  1.0500000000000E+00  6.1070162757454E-02  1.0467140633522E+00
107  1.0600000000000E+00  3.5432804072924E-02  1.0682096961097E+00
108  1.0700000000000E+00  1.0234349900799E-02  1.0905267624692E+00
109  1.0800000000000E+00 -1.4501985933606E-02  1.1135902803410E+00
110  1.0900000000000E+00 -3.8751656255417E-02  1.1373075027324E+00
111  1.1000000000000E+00 -6.2488734126575E-02  1.1615679843613E+00
112  1.1100000000000E+00 -8.5685887890484E-02  1.1862438126632E+00
113  1.1200000000000E+00 -1.0831437842485E-01  1.2111900057160E+00
114  1.1300000000000E+00 -1.3034407922194E-01  1.2362450785881E+00
115  1.1400000000000E+00 -1.5174351979142E-01  1.2612317786187E+00
116  1.1500000000000E+00 -1.7247995276397E-01  1.2859579891657E+00
117  1.1600000000000E+00 -1.9251944496453E-01  1.3102178004138E+00
118  1.1700000000000E+00 -2.1182699262233E-01  1.3337927449187E+00
119  1.1800000000000E+00 -2.3036666079081E-01  1.3564531946826E+00
120  1.1900000000000E+00 -2.4810174696214E-01  1.3779599156976E+00
121  1.2000000000000E+00 -2.6499496877911E-01  1.3980657750630E+00
122  1.2100000000000E+00 -2.8100867566684E-01  1.4165175949651E+00
123  1.2200000000000E+00 -2.9610508412901E-01  1.4330581470036E+00
124  1.2300000000000E+00 -3.1024653637225E-01  1.4474282795324E+00
125  1.2400000000000E+00 -3.2339578183695E-01  1.4593691698581E+00
126  1.2500000000000E+00 -3.3551628111768E-01  1.4686246922767E+00
127  1.2600000000000E+00 -3.4657253164767E-01  1.4749438920113E+00
128  1.2700000000000E+00 -3.5653041439484E-01  1.4780835541325E+00
129  1.2800000000000E+00 -3.6535756066631E-01  1.4778108554562E+00
130  1.2900000000000E+00 -3.7302373793720E-01  1.4739060862149E+00
131  1.3000000000000E+00 -3.7950125340402E-01  1.4661654269451E+00
132  1.3100000000000E+00 -3.8476537370431E-01  1.4544037645151E+00
133  1.3200000000000E+00 -3.8879475893645E-01  1.4384575294786E+00
134  1.3300000000000E+00 -3.9157190874851E-01  1.4181875349718E+00
135  1.3400000000000E+00 -3.9308361783961E-01  1.3934817951405E+00
136  1.3500000000000E+00 -3.9332143771418E-01  1.3642582985228E+00
137  1.3600000000000E+00 -3.9228214095253E-01  1.3304677089348E+00
138  1.3700000000000E+00 -3.8996818359123E-01  1.2920959631296E+00
139  1.3800000000000E+00 -3.8638816044758E-01  1.2491667308333E+00
140  1.3900000000000E+00 -3.8155724734822E-01  1.2017436985986E+00
141  1.4000000000000E+00 -3.7549762324414E-01  1.1499326342944E+00
142  1.4100000000000E+00 -3.6823886408692E-01  1.0938831838695E+00
143  1.4200000000000E+00 -3.5981829910688E-01  1.0337903462796E+00
144  1.4300000000000E+00 -3.5028131875714E-01  9.6989556609489E-01
145  1.4400000000000E+00 -3.3968162205748E-01  9.0248737625041E-01
146  1.4500000000000E+00 -3.2808138938837E-01  8.3190151566199E-01
147  1.4600000000000E+00 -3.1555136492827E-01  7.5852043791544E-01
148  1.4700000000000E+00 -3.0217083088774E-01  6.8277211790298E-01
149  1.4800000000000E+00 -2.8802745347472E-01  6.0512805313729E-01
150  1.4900000000000E+00 -2.7321697809081E-01  5.2610034535519E-01
151  1.5000000000000E+00 -2.5784274862051E-01  4.4623773598268E-01
152  1.5100000000000E+00 -2.4201502281312E-01  3.6612045596811E-01
153  1.5200000000000E+00 -2.2585005265539E-01  2.8635373633258E-01
154  1.5300000000000E+00 -2.0946889528453E-01  2.0755981049309E-01
155  1.5400000000000E+00 -1.9299591638003E-01  1.3036822291275E-01
156  1.5500000000000E+00 -1.7655694408464E-01  5.5404240850028E-02
157  1.5600000000000E+00 -1.6027702732306E-01 -1.6724853164014E-02
158  1.5700000000000E+00 -1.4427774791532E-01 -8.5445830983824E-02
159  1.5800000000000E+00 -1.2867402948558E-01 -1.5023822589037E-01
160  1.5900000000000E+00 -1.1357038090152E-01 -2.1065597506131E-01
161  1.6000000000000E+00 -9.9056615733639E-02 -2.6635161966353E-01
162  1.6100000000000E+00 -8.5202384362454E-02 -3.1710724293494E-01
163  1.6200000000000E+00 -7.2056497945175E-02 -3.6283309395730E-01
164  1.6300000000000E+00 -5.9656270589077E-02 -4.0350214678087E-01
165  1.6400000000000E+00 -4.8033171800805E-02 -4.3911186244569E-01
166  1.6500000000000E+00 -3.7212393917680E-02 -4.6968669605234E-01
167  1.6600000000000E+00 -2.7212860072466E-02 -4.9527775124683E-01
168  1.6700000000000E+00 -1.8047192264737E-02 -5.1596281263324E-01
169  1.6800000000000E+00 -9.7217272266247E-03 -5.3184616192659E-01
170  1.6900000000000E+00 -2.2365838728611E-03 -5.4305815517529E-01
171  1.7000000000000E+00  4.4142203687211E-03 -5.4975457840238E-01
172  1.7100000000000E+00  1.0242604458113E-02 -5.5211578136232E-01
173  1.7200000000000E+00  1.5266211059572E-02 -5.5034559504752E-01
174  1.7300000000000E+00  1.9508148042358E-02 -5.4467004151764E-01
175  1.7400000000000E+00  2.2996685740716E-02 -5.3533584276576E-01
176  1.7500000000000E+00  2.5764912515039E-02 -5.2260874067368E-01
177  1.7600000000000E+00  2.7850351272262E-02 -5.0677164022406E-01
178  1.7700000000000E+00  2.9294540085528E-02 -4.8812259053627E-01
179  1.7800000000000E+00  3.0142580359807E-02 -4.6697261966206E-01
180  1.7900000000000E+00  3.0442656302949E-02 -4.4364344052850E-01
181  1.8000000000000E+00  3.0245529773591E-02 -4.1846504690246E-01
182  1.8100000000000E+00  2.9604014791796E-02 -3.9177321920783E-01
183  1.8200000000000E+00  2.8572436240023E-02 -3.6390696119093E-01
184  1.8300000000000E+00  2.7206077412406E-02 -3.3520588899434E-01
185  1.8400000000000E+00  2.5560621221199E-02 -3.0600759493308E-01
186  1.8500000000000E+00  2.3691589958089E-02 -2.7664500868668E-01
187  1.8600000000000E+00  2.1653788509828E-02 -2.4744377859645E-01
188  1.8700000000000E+00  1.9500758361594E-02 -2.1871970495521E-01
189  1.8800000000000E+00  1.7284223347363E-02 -1.9077615840450E-01
190  1.8900000000000E+00  1.5053628010063E-02 -1.6390186177763E-01
191  1.9000000000000E+00  1.2855576527160E-02 -1.3836834274936E-01
192  1.9100000000000E+00  1.0732242046202E-02 -1.1442348686328E-01
193  1.9200000000000E+00  8.7204201077015E-03 -9.2287444116726E-02
194  1.9300000000000E+00  6.8567428155175E-03 -7.2171952199579E-02
195  1.9400000000000E+00  5.1735979110989E-03 -5.4264909024710E-02
196  1.9500000000000E+00  3.6982803641503E-03 -3.8726889707926E-02
197  1.9600000000000E+00  2.4528398302143E-03 -2.5690290263579E-02
198  1.9700000000000E+00  1.4540403744987E-03 -1.5260410435533E-02
199  1.9800000000000E+00  7.1196899736717E-04 -7.5014498182557E-03
200  1.9900000000000E+00  2.3169621657145E-04 -2.4552671348706E-03
201  2.0000000000000E+00  2.3735174834910E-05 -2.5361151910860E-04
202  2.0100000000000E+00 -7.9536531198635E-06  8.5250131188953E-05
203  2.0200000000000E+00  2.6293894396549E-06 -2.8040575374485E-05
204  2.03 -0.  0.
205  2.04 -0. -0.
206  2.05 -0. -0.
207  2.06  0.  0.
208  2.07  0.  0.
209  2.08  0.  0.
210  2.09  0.  0.
211  2.10  0.  0.
212  2.11  0.  0.
213  2.12  0.  0.
214  2.13  0.  0.
215  2.14  0.  0.
216  2.15  0.  0.
217  2.16  0.  0.
218  2.17  0.  0.
219  2.18  0.  0.
220  2.19  0.  0.
221  2.20  0.  0.
222  2.21  0.  0.
223  2.22  0.  0.
224  2.23  0.  0.
225  2.24  0.  0.
226  2.25  0.  0.
227  2.26  0.  0.
228  2.27  0.  0.
229  2.28  0.  0.
230  2.29  0.  0.
231  2.30  0.  0.
232  2.31  0.  0.
233  2.32  0.  0.
234  2.33  0.  0.
235  2.34  0.  0.
236  2.35  0.  0.
237  2.36  0.  0.
238  2.37  0.  0.
239  2.38  0.  0.
240  2.39  0.  0.
241  2.40  0.  0.
242  2.41  0.  0.
243  2.42  0.  0.
244  2.43  0.  0.
245  2.44  0.  0.
246  2.45  0.  0.
247  2.46  0.  0.
248  2.47  0.  0.
249  2.48  0.  0.
250  2.49  0.  0.
251  2.50  0.  0.
252  2.51  0.  0.
253  2.52  0.  0.
254  2.53  0.  0.
255  2.54  0.  0.
256  2.55  0.  0.
257  2.56  0.  0.
258  2.57  0.  0.
259  2.58  0.  0.
260  2.59  0.  0.
261  2.60  0.  0.
262  2.61  0.  0.
263  2.62  0.  0.
264  2.63  0.  0.
265  2.64  0.  0.
266  2.65  0.  0.
267  2.66  0.  0.
268  2.67  0.  0.
269  2.68  0.  0.
270  2.69  0.  0.
271  2.70  0.  0.
272  2.71  0.  0.
273  2.72  0.  0.
274  2.73  0.  0.
275  2.74  0.  0.
276  2.75  0.  0.
277  2.76  0.  0.
278  2.77  0.  0.
279  2.78  0.  0.
280  2.79  0.  0.
281  2.80  0.  0.
282  2.81  0.  0.
283  2.82  0.  0.
284  2.83  0.  0.
285  2.84  0.  0.
286  2.85  0.  0.
287  2.86  0.  0.
288  2.87  0.  0.
289  2.88  0.  0.
290  2.89  0.  0.
291  2.90  0.  0.
292  2.91  0.  0.
293  2.92  0.  0.
294  2.93  0.  0.
295  2.94  0.  0.
296  2.95  0.  0.
297  2.96  0.  0.
298  2.97  0.  0.
299  2.98  0.  0.
300  2.99  0.  0.
301  3.00  0.  0.
302  3.01  0.  0.
303  3.02  0.  0.
304  3.03  0.  0.
305  3.04  0.  0.
306  3.05  0.  0.
307  3.06  0.  0.
308  3.07  0.  0.
309  3.08  0.  0.
310  3.09  0.  0.
311  3.10  0.  0.
312  3.11  0.  0.
313  3.12  0.  0.
314  3.13  0.  0.
315  3.14  0.  0.
316  3.15  0.  0.
317  3.16  0.  0.
318  3.17  0.  0.
319  3.18  0.  0.
320  3.19  0.  0.
321  3.20  0.  0.
322  3.21  0.  0.
323  3.22  0.  0.
324  3.23  0.  0.
325  3.24  0.  0.
326  3.25  0.  0.
327  3.26  0.  0.
328  3.27  0.  0.
329  3.28  0.  0.
330  3.29  0.  0.
331  3.30  0.  0.
332  3.31  0.  0.
333  3.32  0.  0.
334  3.33  0.  0.
335  3.34  0.  0.
336  3.35  0.  0.
337  3.36  0.  0.
338  3.37  0.  0.
339  3.38  0.  0.
340  3.39  0.  0.
341  3.40  0.  0.
342  3.41  0.  0.
343  3.42  0.  0.
344  3.43  0.  0.
345  3.44  0.  0.
346  3.45  0.  0.
347  3.46  0.  0.
348  3.47  0.  0.
349  3.48  0.  0.
350  3.49  0.  0.
351  3.50  0.  0.
352  3.51  0.  0.
353  3.52  0.  0.
354  3.53  0.  0.
355  3.54  0.  0.
356  3.55  0.  0.
357  3.56  0.  0.
358  3.57  0.  0.
359  3.58  0.  0.
360  3.59  0.  0.
361  3.60  0.  0.
362  3.61  0.  0.
363  3.62  0.  0.
364  3.63  0.  0.
365  3.64  0.  0.
366  3.65  0.  0.
367  3.66  0.  0.
368  3.67  0.  0.
369  3.68  0.  0.
370  3.69  0.  0.
371  3.70  0.  0.
372  3.71  0.  0.
373  3.72  0.  0.
374  3.73  0.  0.
375  3.74  0.  0.
376  3.75  0.  0.
377  3.76  0.  0.
378  3.77  0.  0.
379  3.78  0.  0.
380  3.79  0.  0.
381  3.80  0.  0.
382  3.81  0.  0.
383  3.82  0.  0.
384  3.83  0.  0.
385  3.84  0.  0.
386  3.85  0.  0.
387  3.86  0.  0.
388  3.87  0.  0.
389  3.88  0.  0.
390  3.89  0.  0.
391  3.90  0.  0.
392  3.91  0.  0.
393  3.92  0.  0.
394  3.93  0.  0.
395  3.94  0.  0.
396  3.95  0.  0.
397  3.96  0.  0.
398  3.97  0.  0.
399  3.98  0.  0.
400  3.99  0.  0.
401  4.00  0.  0.
402  4.01  0.  0.
403  4.02  0.  0.
404  4.03  0.  0.
405  4.04  0.  0.
406  4.05  0.  0.
407  4.06  0.  0.
408  4.07  0.  0.
409  4.08  0.  0.
410  4.09  0.  0.
411  4.10  0.  0.
412  4.11  0.  0.
413  4.12  0.  0.
414  4.13  0.  0.
415  4.14  0.  0.
416  4.15  0.  0.
417  4.16  0.  0.
418  4.17  0.  0.
419  4.18  0.  0.
420  4.19  0.  0.
421  4.20  0.  0.
422  4.21  0.  0.
423  4.22  0.  0.
424  4.23  0.  0.
425  4.24  0.  0.
426  4.25  0.  0.
427  4.26  0.  0.
428  4.27  0.  0.
429  4.28  0.  0.
430  4.29  0.  0.
431  4.30  0.  0.
432  4.31  0.  0.
433  4.32  0.  0.
434  4.33  0.  0.
435  4.34  0.  0.
436  4.35  0.  0.
437  4.36  0.  0.
438  4.37  0.  0.
439  4.38  0.  0.
440  4.39  0.  0.
441  4.40  0.  0.
442  4.41  0.  0.
443  4.42  0.  0.
444  4.43  0.  0.
445  4.44  0.  0.
446  4.45  0.  0.
447  4.46  0.  0.
448  4.47  0.  0.
449  4.48  0.  0.
450  4.49  0.  0.
451  4.50  0.  0.
452  4.51  0.  0.
453  4.52  0.  0.
454  4.53  0.  0.
455  4.54  0.  0.
456  4.55  0.  0.
457  4.56  0.  0.
458  4.57  0.  0.
459  4.58  0.  0.
460  4.59  0.  0.
461  4.60  0.  0.
462  4.61  0.  0.
463  4.62  0.  0.
464  4.63  0.  0.
465  4.64  0.  0.
466  4.65  0.  0.
467  4.66  0.  0.
468  4.67  0.  0.
469  4.68  0.  0.
470  4.69  0.  0.
471  4.70  0.  0.
472  4.71  0.  0.
473  4.72  0.  0.
474  4.73  0.  0.
475  4.74  0.  0.
476  4.75  0.  0.
477  4.76  0.  0.
478  4.77  0.  0.
479  4.78  0.  0.
480  4.79  0.  0.
481  4.80  0.  0.
482  4.81  0.  0.
483  4.82  0.  0.
484  4.83  0.  0.
485  4.84  0.  0.
486  4.85  0.  0.
487  4.86  0.  0.
488  4.87  0.  0.
489  4.88  0.  0.
490  4.89  0.  0.
491  4.90  0.  0.
492  4.91  0.  0.
493  4.92  0.  0.
494  4.93  0.  0.
495  4.94  0.  0.
496  4.95  0.  0.
497  4.96  0.  0.
498  4.97  0.  0.
499  4.98  0.  0.
500  4.99  0.  0.
501  5.00  0.  0.
502  5.01  0.  0.
503  5.02  0.  0.
504  5.03  0.  0.
505  5.04  0.  0.
506  5.05  0.  0.
507  5.06  0.  0.
508  5.07  0.  0.
509  5.08  0.  0.
510  5.09  0.  0.
511  5.10  0.  0.
512  5.11  0.  0.
513  5.12  0.  0.
514  5.13  0.  0.
515  5.14  0.  0.
516  5.15  0.  0.
517  5.16  0.  0.
518  5.17  0.  0.
519  5.18  0.  0.
520  5.19  0.  0.
521  5.20  0.  0.
522  5.21  0.  0.
523  5.22  0.  0.
524  5.23  0.  0.
525  5.24  0.  0.
526  5.25  0.  0.
527  5.26  0.  0.
528  5.27  0.  0.
529  5.28  0.  0.
530  5.29  0.  0.
531  5.30  0.  0.
532  5.31  0.  0.
533  5.32  0.  0.
534  5.33  0.  0.
535  5.34  0.  0.
536  5.35  0.  0.
537  5.36  0.  0.
538  5.37  0.  0.
539  5.38  0.  0.
540  5.39  0.  0.
541  5.40  0.  0.
542  5.41  0.  0.
543  5.42  0.  0.
544  5.43  0.  0.
545  5.44  0.  0.
546  5.45  0.  0.
547  5.46  0.  0.
548  5.47  0.  0.
549  5.48  0.  0.
550  5.49  0.  0.
551  5.50  0.  0.
552  5.51  0.  0.
553  5.52  0.  0.
554  5.53  0.  0.
555  5.54  0.  0.
556  5.55  0.  0.
557  5.56  0.  0.
558  5.57  0.  0.
559  5.58  0.  0.
560  5.59  0.  0.
561  5.60  0.  0.
562  5.61  0.  0.
563  5.62  0.  0.
564  5.63  0.  0.
565  5.64  0.  0.
566  5.65  0.  0.
567  5.66  0.  0.
568  5.67  0.  0.
569  5.68  0.  0.
570  5.69  0.  0.
571  5.70  0.  0.
572  5.71  0.  0.
573  5.72  0.  0.
574  5.73  0.  0.
575  5.74  0.  0.
576  5.75  0.  0.
577  5.76  0.  0.
578  5.77  0.  0.
579  5.78  0.  0.
580  5.79  0.  0.
581  5.80  0.  0.
582  5.81  0.  0.
583  5.82  0.  0.
584  5.83  0.  0.
585  5.84  0.  0.
586  5.85  0.  0.
587  5.86  0.  0.
588  5.87  0.  0.
589  5.88  0.  0.
590  5.89  0.  0.
591  5.90  0.  0.
592  5.91  0.  0.
593  5.92  0.  0.
594  5.93  0.  0.
595  5.94  0.  0.
596  5.95  0.  0.
597  5.96  0.  0.
598  5.97  0.  0.
599  5.98  0.  0.
600  5.99  0.  0.
1                         5.0124663623373E+00  2.3015571496738E-01
1  0.0000000000000E+00  6.6444624802209E-09 -8.4328648342069E-08
2  1.0000000000000E-02  1.4283265065193E-03 -6.5252071507590E-03
3  2.0000000000000E-02  5.7005769365742E-03 -2.5962277957741E-02
4  3.0000000000000E-02  1.2778772884958E-02 -5.7898208493462E-02
5  4.0000000000000E-02  2.2600309328708E-02 -1.0165343633994E-01
6  5.0000000000000E-02  3.5078979556776E-02 -1.5629483536755E-01
7  6.0000000000000E-02  5.0106383234765E-02 -2.2065356883761E-01
8  7.0000000000000E-02  6.7553691372101E-02 -2.9334746873571E-01
9  8.0000000000000E-02  8.7273735314553E-02 -3.7280752491469E-01
10  9.0000000000000E-02  1.0910338085656E-01 -4.5730799094605E-01
11  1.0000000000000E-01  1.3286614326886E-01 -5.4499954596276E-01
12  1.1000000000000E-01  1.5837499456695E-01 -6.3394489446708E-01
13  1.2000000000000E-01  1.8543531078930E-01 -7.2215614013494E-01
14  1.3000000000000E-01  2.1384790447838E-01 -8.0763323592387E-01
15  1.4000000000000E-01  2.4341208601143E-01 -8.8840279191278E-01
16  1.5000000000000E-01  2.7392869694191E-01 -9.6255651466365E-01
17  1.6000000000000E-01  3.0520305909577E-01 -1.0282885576480E+00
18  1.7000000000000E-01  3.3704778481136E-01 -1.0839310813343E+00
19  1.8000000000000E-01  3.6928539638608E-01 -1.1279873535478E+00
20  1.9000000000000E-01  4.0175070644979E-01 -1.1591617651201E+00
21  2.0000000000000E-01  4.3429291555668E-01 -1.1763861918408E+00
22  2.1000000000000E-01  4.6677738868880E-01 -1.1788422002922E+00
23  2.2000000000000E-01  4.9908707849708E-01 -1.1659786710861E+00
24  2.3000000000000E-01  5.3112356985403E-01 -1.1375244969444E+00
25  2.4000000000000E-01  5.6280772753213E-01 -1.0934961034414E+00
26  2.5000000000000E-01  5.9407993641698E-01 -1.0341996354158E+00
27  2.6000000000000E-01  6.2489993147401E-01 -9.6022775030728E-01
28  2.7000000000000E-01  6.5524622256391E-01 -8.7245105919795E-01
29  2.8000000000000E-01  6.8511512699855E-01 -7.7200435529797E-01
30  2.9000000000000E-01  7.1451943029870E-01 -6.6026786620675E-01
31  3.0000000000000E-01  7.4348670281356E-01 -5.3884385871584E-01
32  3.1000000000000E-01  7.7205730655529E-01 -4.0952901150153E-01
33  3.2000000000000E-01  8.0028213266038E-01 -2.7428305017867E-01
34  3.3000000000000E-01  8.2822011519874E-01 -1.3519420938841E-01
35  3.4000000000000E-01  8.5593557150898E-01  5.5578534359733E-03
36  3.5000000000000E-01  8.8349542275670E-01  1.4574101935927E-01
37  3.6000000000000E-01  9.1096635092381E-01  2.8311083466936E-01
38  3.7000000000000E-01  9.3841194988910E-01  4.1545107001873E-01
39  3.8000000000000E-01  9.6588992862294E-01  5.4061396898165E-01
40  3.9000000000000E-01  9.9344942378118E-01  6.5655944666959E-01
41  4.0000000000000E-01  1.0211284771548E+00  7.6139251628099E-01
42  4.1000000000000E-01  1.0489517305419E+00  8.5339825199337E-01
43  4.2000000000000E-01  1.0769283867104E+00  9.3107363991080E-01
44  4.3000000000000E-01  1.1050504802756E+00  9.9315572408381E-01
45  4.4000000000000E-01  1.1332914966245E+00  1.0386455209383E+00
46  4.5000000000000E-01  1.1616053705699E+00  1.0668272515885E+00
47  4.6000000000000E-01  1.1899258893379E+00  1.0772825260893E+00
48  4.7000000000000E-01  1.2181665169111E+00  1.0698992051748E+00
49  4.8000000000000E-01  1.2462206488029E+00  1.0448747617614E+00
50  4.9000000000000E-01  1.2739622981786E+00  1.0027140647030E+00
51  5.0000000000000E-01  1.3012472060151E+00  9.4422160914338E-01
52  5.1000000000000E-01  1.3279143598578E+00  8.7048831943677E-01
53  5.2000000000000E-01  1.3537878978451E+00  7.8287315014981E-01
54  5.3000000000000E-01  1.3786793671746E+00  6.8297980626660E-01
55  5.4000000000000E-01  1.4023902992246E+00  5.7262899363906E-01
56  5.5000000000000E-01  1.4247150572524E+00  4.5382669328554E-01
57  5.6000000000000E-01  1.4454439070885E+00  3.2872902680952E-01
58  5.7000000000000E-01  1.4643662566403E+00  1.9960434361472E-01
59  5.8000000000000E-01  1.4812740063978E+00  6.8793212542932E-02
60  5.9000000000000E-01  1.4959649505764E+00 -6.1332959917747E-02
61  6.0000000000000E-01  1.5082461670834E+00 -1.8841393637143E-01
62  6.1000000000000E-01  1.5179373341924E+00 -3.1014251907306E-01
63  6.2000000000000E-01  1.5248739126634E+00 -4.2430552448831E-01
64  6.3000000000000E-01  1.5289101340475E+00 -5.2882311729624E-01
65  6.4000000000000E-01  1.5299217390228E+00 -6.2178578823263E-01
66  6.5000000000000E-01  1.5278084137881E+00 -7.0148830231051E-01
67  6.6000000000000E-01  1.5224958776942E+00 -7.6645999852554E-01
68  6.7000000000000E-01  1.5139375813544E+00 -8.1549088816249E-01
69  6.8000000000000E-01  1.5021159813131E+00 -8.4765307506871E-01
70  6.9000000000000E-01  1.4870433648590E+00 -8.6231710635951E-01
71  7.0000000000000E-01  1.4687622065950E+00 -8.5916295439881E-01
72  7.1000000000000E-01  1.4473450467840E+00 -8.3818542887418E-01
73  7.2000000000000E-01  1.4228938901162E+00 -7.9969391953538E-01
74  7.3000000000000E-01  1.3955391322299E+00 -7.4430647382769E-01
75  7.4000000000000E-01  1.3654380299082E+00 -6.7293831730156E-01
76  7.5000000000000E-01  1.3327727391964E+00 -5.8678502639565E-01
77  7.6000000000000E-01  1.2977479535936E+00 -4.8730066109751E-01
78  7.7000000000000E-01  1.2605881818153E+00 -3.7617125725689E-01
79  7.8000000000000E-01  1.2215347112540E+00 -2.5528416325006E-01
80  7.9000000000000E-01  1.1808423090705E+00 -1.2669378169217E-01
81  8.0000000000000E-01  1.1387757177064E+00  7.4156574458330E-03
82  8.1000000000000E-01  1.0956060054293E+00  1.4476961186407E-01
83  8.2000000000000E-01  1.0516068352366E+00  2.8304430812685E-01
84  8.3000000000000E-01  1.0070507169839E+00  4.1990863885968E-01
85  8.4000000000000E-01  9.6220530796048E-01  5.5306611146972E-01
86  8.5000000000000E-01  9.1732982627204E-01  6.8029608372153E-01
87  8.6000000000000E-01  8.7267163934580E-01  7.9949353543939E-01
88  8.7000000000000E-01  8.2846308666630E-01  9.0870665341202E-01
89  8.8000000000000E-01  7.8491859154762E-01  1.0061715477159E+00
90  8.9000000000000E-01  7.4223211142499E-01  1.0903434713761E+00
91  9.0000000000000E-01  7.0057496990533E-01  1.1599239805343E+00
92  9.1000000000000E-01  6.6009410676785E-01  1.2138835478632E+00
93  9.2000000000000E-01  6.2091077438491E-01  1.2514792264359E+00
94  9.3000000000000E-01  5.8311970078219E-01  1.2722670530398E+00
95  9.4000000000000E-01  5.4678873093436E-01  1.2761089772776E+00
96  9.5000000000000E-01  5.1195894905596E-01  1.2631742039230E+00
97  9.6000000000000E-01  4.7864527576603E-01  1.2339349389749E+00
98  9.7000000000000E-01  4.4683752524604E-01  1.1891566327595E+00
99  9.8000000000000E-01  4.1650189903761E-01  1.1298829143594E+00
100  9.9000000000000E-01  3.8758288510371E-01  1.0574155086578E+00
101  1.0000000000000E+00  3.6000552334676E-01  9.7328951869241E-01
102  1.0100000000000E+00  3.3367799209040E-01  8.7924453997888E-01
103  1.0200000000000E+00  3.0849446420721E-01  7.7719214853581E-01
104  1.0300000000000E+00  2.8433817672297E-01  6.6918036912584E-01
105  1.0400000000000E+00  2.6108465394109E-01  5.5735578354732E-01
106  1.0500000000000E+00  2.3860502148006E-01  4.4392397966947E-01
107  1.0600000000000E+00  2.1676934714608E-01  3.3110906968415E-01
108  1.0700000000000E+00  1.9544994430583E-01  2.2111302017422E-01
109  1.0800000000000E+00  1.7452457437275E-01  1.1607553698104E-01
110  1.0900000000000E+00  1.5387948716891E-01  1.8035234438393E-02
111  1.1000000000000E+00  1.3341224121084E-01 -7.1107208208520E-02
112  1.1100000000000E+00  1.1303425034678E-01 -1.4962324004274E-01
113  1.1200000000000E+00  9.2673008542707E-02 -2.1598736983732E-01
114  1.1300000000000E+00  7.2273950878052E-02 -2.6890428660535E-01
115  1.1400000000000E+00  5.1801915850844E-02 -3.0733169277742E-01
116  1.1500000000000E+00  3.1242181757148E-02 -3.3049845403172E-01
117  1.1600000000000E+00  1.0601058071702E-02 -3.3791775722270E-01
118  1.1700000000000E+00 -1.0093978756699E-02 -3.2939506025359E-01
119  1.1800000000000E+00 -3.0794607030954E-02 -3.0503071336054E-01
120  1.1900000000000E+00 -5.1432432313385E-02 -2.6521722859040E-01
121  1.2000000000000E+00 -7.1920195505630E-02 -2.1063127069403E-01
122  1.2100000000000E+00 -9.2153393077516E-02 -1.4222053765399E-01
123  1.2200000000000E+00 -1.1201227835938E-01 -6.1185789242441E-02
124  1.2300000000000E+00 -1.3136420569883E-01  3.1041632582333E-02
125  1.2400000000000E+00 -1.5006627296355E-01  1.3282636985351E-01
126  1.2500000000000E+00 -1.6796821240971E-01  2.4235921039406E-01
127  1.2600000000000E+00 -1.8491547541411E-01  3.5769029427752E-01
128  1.2700000000000E+00 -2.0075245312277E-01  4.7676476509146E-01
129  1.2800000000000E+00 -2.1532577269860E-01  5.9746022834790E-01
130  1.2900000000000E+00 -2.2848760762655E-01  7.1762535361466E-01
131  1.3000000000000E+00 -2.4009894046342E-01  8.3511894347434E-01
132  1.3100000000000E+00 -2.5003271747805E-01  9.4784879105763E-01
133  1.3200000000000E+00 -2.5817683680867E-01  1.0538096586665E+00
134  1.3300000000000E+00 -2.6443691499731E-01  1.1511197323350E+00