<?xml version="1.0" encoding="UTF-8" ?>
<psml version="1.1" energy_unit="hartree" length_unit="bohr"
 uuid="4442e2c0-c73d-11ed-5dc5-c797bf7ce8cd"
 xmlns="http://esl.cecam.org/PSML/ns/1.1">
<provenance creator="ONCVPSP-4.0.1+psml-4.0.1-76 (scalar-relativistic)"
 date="2023-03-20">
<annotation action="semilocal-pseudopotential-generation"
 action-cont="projectors-generation" />
<input-file name="oncvpsp-input">
<![CDATA[# atsym z nc nv iexc psfile
Po 84 12 3 4 both
# n l f
1 0 2.0
2 0 2.0
2 1 6.0
3 0 2.0
3 1 6.0
3 2 10.0
4 0 2.0
4 1 6.0
4 2 10.0
5 0 2.0
5 1 6.0
4 3 14.0
5 2 10.0
6 0 2.0
6 1 4.0
# lmax
3
# l rc ep ncon nbas qcut
0 2.15 0.0 4 7 3.6
1 2.2 0.0 4 8 4.6
2 1.9 0.0 4 8 8.0
3 2.0 0.05 4 7 4.0
# lloc lpopt rc5 dvloc0
4 5 1.9 0.0
# l nproj debl
0 3 3.0
1 2 3.0
2 2 2.5
3 1 1.0
# icmod fcfact rcfact
3 6.0 1.34
# epsh1 epsh2 depsh
-12.0 12.0 0.02
# rlmax drl
6.0 0.01
0
]]>
</input-file>
</provenance>
<pseudo-atom-spec atomic-label="Po" atomic-number="84" z-pseudo="16"
 flavor="Hamann&apos;s oncvpsp" relativity="scalar" spin-dft="no"
 core-corrections="yes">
<annotation pseudo-energy="-82.9318625189" cutoff_hint_low="39"
 cutoff_hint_normal="52" cutoff_hint_high="57" />
<exchange-correlation>
<annotation oncvpsp-xc-code="4" oncvpsp-xc-type="GGA -- Perdew-Burke-Ernzerhof" />
<libxc-info number-of-functionals="2">
<functional name="Perdew, Burke &amp; Ernzerhof (GGA)" type="exchange" id="101" />
<functional name="Perdew, Burke &amp; Ernzerhof (GGA)" type="correlation"
 id="130" />
</libxc-info>
</exchange-correlation>
<valence-configuration total-valence-charge="16">
<shell n="5" l="d" occupation="10" />
<shell n="6" l="s" occupation="2" />
<shell n="6" l="p" occupation="4" />
</valence-configuration>
</pseudo-atom-spec>
<grid npts="797">
<annotation type="sampled from oncvpsp log grid"
 recipe="r(i:1..N) = r1*exp(a*(i-1)) + r=0; resampled"
 recipe-cont="r1: scale; a: step" scale="0.595238095238E-05"
 step="0.598207167755E-02" delta="0.500000000000E-02" rmax="44.5602586620" />
<grid-data>
  0.000000000000E+00  5.012068627186E-03  1.003189025273E-02  1.506764784016E-02
  2.007929849502E-02  2.520413535525E-02  3.033955493174E-02  3.544514067320E-02
  4.067337968474E-02  4.584266694799E-02  5.105444132841E-02  5.618252060417E-02
  6.145693971884E-02  6.682556827341E-02  7.222979960815E-02  7.760544232871E-02
  8.288385962696E-02  8.799333412771E-02  9.341778828544E-02  9.858512862547E-02
  1.040382968221E-01  1.091382736037E-01  1.144882522018E-01  1.201004877519E-01
  1.252364176334E-01  1.305919783942E-01  1.361765622428E-01  1.419999630321E-01
  1.471892578883E-01  1.525681920974E-01  1.581436959042E-01  1.639229528150E-01
  1.699134088524E-01  1.750723480605E-01  1.803879238397E-01  1.858648920157E-01
  1.915081528113E-01  1.973227552307E-01  2.033139015769E-01  2.094869521058E-01
  2.145600694062E-01  2.197560417049E-01  2.250778441649E-01  2.305285239981E-01
  2.361112022107E-01  2.418290753895E-01  2.476854175329E-01  2.536835819251E-01
  2.598270030563E-01  2.661191985896E-01  2.725637713745E-01  2.791644115105E-01
  2.842195809736E-01  2.893662905373E-01  2.946061978295E-01  2.999409904947E-01
  3.053723867379E-01  3.109021358774E-01  3.165320189087E-01  3.222638490780E-01
  3.280994724661E-01  3.340407685830E-01  3.400896509733E-01  3.462480678325E-01
  3.525180026344E-01  3.589014747700E-01  3.654005401978E-01  3.720172921062E-01
  3.787538615874E-01  3.856124183239E-01  3.925951712872E-01  3.997043694494E-01
  4.069423025076E-01  4.143113016209E-01  4.218137401619E-01  4.268906903385E-01
  4.320287466874E-01  4.372286446825E-01  4.424911286499E-01  4.478169518743E-01
  4.532068767071E-01  4.586616746752E-01  4.641821265915E-01  4.697690226672E-01
  4.754231626240E-01  4.811453558094E-01  4.869364213119E-01  4.927971880788E-01
  4.987284950345E-01  5.047311912008E-01  5.108061358180E-01  5.169541984687E-01
  5.231762592015E-01  5.294732086573E-01  5.358459481967E-01  5.422953900292E-01
  5.488224573436E-01  5.554280844401E-01  5.621132168645E-01  5.688788115426E-01
  5.757258369184E-01  5.826552730915E-01  5.896681119584E-01  5.967653573540E-01
  6.039480251951E-01  6.112171436263E-01  6.185737531670E-01  6.260189068601E-01
  6.335536704231E-01  6.411791224003E-01  6.488963543175E-01  6.567064708381E-01
  6.646105899211E-01  6.726098429814E-01  6.807053750515E-01  6.888983449456E-01
  6.971899254254E-01  7.055813033678E-01  7.140736799352E-01  7.226682707469E-01
  7.313663060536E-01  7.401690309132E-01  7.490777053693E-01  7.580936046311E-01
  7.672180192565E-01  7.764522553362E-01  7.857976346815E-01  7.952554950125E-01
  8.048271901505E-01  8.145140902111E-01  8.243175818009E-01  8.342390682155E-01
  8.392445026247E-01  8.442799696405E-01  8.493456494583E-01  8.544417233551E-01
  8.595683736952E-01  8.647257839374E-01  8.699141386410E-01  8.751336234729E-01
  8.803844252137E-01  8.856667317650E-01  8.909807321556E-01  8.963266165485E-01
  9.017045762478E-01  9.071148037053E-01  9.125574925275E-01  9.180328374827E-01
  9.235410345076E-01  9.290822807146E-01  9.346567743989E-01  9.402647150453E-01
  9.459063033356E-01  9.515817411556E-01  9.572912316025E-01  9.630349789921E-01
  9.688131888661E-01  9.746260679993E-01  9.804738244073E-01  9.863566673537E-01
  9.922748073578E-01  9.982284562020E-01  1.004217826939E+00  1.010243133901E+00
  1.016304592704E+00  1.022402420260E+00  1.028536834782E+00  1.034708055791E+00
  1.040916304125E+00  1.047161801950E+00  1.053444772762E+00  1.059765441398E+00
  1.066124034047E+00  1.072520778251E+00  1.078955902921E+00  1.085429638338E+00
  1.091942216168E+00  1.098493869465E+00  1.105084832682E+00  1.111715341678E+00
  1.118385633728E+00  1.125095947531E+00  1.131846523216E+00  1.138637602355E+00
  1.145469427969E+00  1.152342244537E+00  1.159256298004E+00  1.166211835792E+00
  1.173209106807E+00  1.180248361448E+00  1.187329851617E+00  1.194453830726E+00
  1.201620553711E+00  1.208830277033E+00  1.216083258695E+00  1.223379758247E+00
  1.230720036797E+00  1.238104357017E+00  1.245532983160E+00  1.253006181059E+00
  1.260524218145E+00  1.268087363454E+00  1.275695887634E+00  1.283350062960E+00
  1.291050163338E+00  1.298796464318E+00  1.306589243104E+00  1.314428778563E+00
  1.322315351234E+00  1.330249243341E+00  1.338230738801E+00  1.346260123234E+00
  1.354337683974E+00  1.362463710077E+00  1.370638492338E+00  1.378862323292E+00
  1.387135497232E+00  1.395458310215E+00  1.403831060076E+00  1.412254046437E+00
  1.420727570715E+00  1.429251936140E+00  1.437827447757E+00  1.446454412443E+00
  1.455133138918E+00  1.463863937751E+00  1.472647121378E+00  1.481483004106E+00
  1.490371902131E+00  1.499314133544E+00  1.508310018345E+00  1.517359878455E+00
  1.526464037726E+00  1.535622821952E+00  1.544836558884E+00  1.554105578237E+00
  1.563430211706E+00  1.572810792977E+00  1.582247657734E+00  1.591741143681E+00
  1.601291590543E+00  1.610899340086E+00  1.620564736127E+00  1.630288124543E+00
  1.640069853291E+00  1.649910272411E+00  1.659809734045E+00  1.669768592449E+00
  1.679787204004E+00  1.689865927228E+00  1.700005122791E+00  1.710205153528E+00
  1.720466384449E+00  1.730789182756E+00  1.741173917852E+00  1.751620961360E+00
  1.762130687128E+00  1.772703471251E+00  1.783339692078E+00  1.794039730230E+00
  1.804803968612E+00  1.815632792424E+00  1.826526589178E+00  1.837485748713E+00
  1.848510663205E+00  1.859601727185E+00  1.870759337548E+00  1.881983893573E+00
  1.893275796934E+00  1.904635451716E+00  1.916063264426E+00  1.927559644013E+00
  1.939125001877E+00  1.950759751888E+00  1.962464310400E+00  1.974239096262E+00
  1.986084530840E+00  1.998001038025E+00  2.009989044253E+00  2.022048978518E+00
  2.034181272389E+00  2.046386360024E+00  2.058664678184E+00  2.071016666253E+00
  2.083442766250E+00  2.095943422848E+00  2.108519083385E+00  2.121170197885E+00
  2.133897219073E+00  2.146700602387E+00  2.159580806001E+00  2.172538290837E+00
  2.185573520583E+00  2.198686961706E+00  2.211879083476E+00  2.225150357977E+00
  2.238501260125E+00  2.251932267686E+00  2.265443861292E+00  2.279036524460E+00
  2.292710743606E+00  2.306467008068E+00  2.320305810116E+00  2.334227644977E+00
  2.348233010847E+00  2.362322408912E+00  2.376496343365E+00  2.390755321426E+00
  2.405099853354E+00  2.419530452474E+00  2.434047635189E+00  2.448651921000E+00
  2.463343832526E+00  2.478123895522E+00  2.492992638895E+00  2.507950594728E+00
  2.522998298296E+00  2.538136288086E+00  2.553365105815E+00  2.568685296450E+00
  2.584097408228E+00  2.599601992678E+00  2.615199604634E+00  2.630890802261E+00
  2.646676147075E+00  2.662556203958E+00  2.678531541181E+00  2.694602730428E+00
  2.710770346811E+00  2.727034968892E+00  2.743397178705E+00  2.759857561777E+00
  2.776416707148E+00  2.793075207391E+00  2.809833658635E+00  2.826692660587E+00
  2.843652816551E+00  2.860714733450E+00  2.877879021851E+00  2.895146295982E+00
  2.912517173758E+00  2.929992276800E+00  2.947572230461E+00  2.965257663844E+00
  2.983049209827E+00  3.000947505086E+00  3.018953190116E+00  3.037066909257E+00
  3.055289310712E+00  3.073621046577E+00  3.092062772856E+00  3.110615149493E+00
  3.129278840390E+00  3.148054513433E+00  3.166942840513E+00  3.185944497556E+00
  3.205060164542E+00  3.224290525529E+00  3.243636268682E+00  3.263098086294E+00
  3.282676674812E+00  3.302372734861E+00  3.322186971270E+00  3.342120093098E+00
  3.362172813656E+00  3.382345850538E+00  3.402639925641E+00  3.423055765195E+00
  3.443594099786E+00  3.464255664385E+00  3.485041198371E+00  3.505951445562E+00
  3.526987154235E+00  3.548149077160E+00  3.569437971623E+00  3.590854599453E+00
  3.612399727050E+00  3.634074125412E+00  3.655878570165E+00  3.677813841586E+00
  3.699880724635E+00  3.722080008983E+00  3.744412489037E+00  3.766878963971E+00
  3.789480237755E+00  3.812217119181E+00  3.835090421896E+00  3.858100964428E+00
  3.881249570214E+00  3.904537067636E+00  3.927964290042E+00  3.951532075782E+00
  3.975241268236E+00  3.999092715846E+00  4.023087272141E+00  4.047225795774E+00
  4.071509150548E+00  4.095938205452E+00  4.120513834684E+00  4.145236917693E+00
  4.170108339199E+00  4.195128989234E+00  4.220299763169E+00  4.245621561748E+00
  4.271095291119E+00  4.296721862866E+00  4.322502194043E+00  4.348437207207E+00
  4.374527830450E+00  4.400774997433E+00  4.427179647418E+00  4.453742725302E+00
  4.480465181654E+00  4.507347972744E+00  4.534392060580E+00  4.561598412944E+00
  4.588968003421E+00  4.616501811442E+00  4.644200822311E+00  4.672066027244E+00
  4.700098423408E+00  4.728299013948E+00  4.756668808032E+00  4.785208820880E+00
  4.813920073805E+00  4.842803594248E+00  4.871860415814E+00  4.901091578309E+00
  4.930498127779E+00  4.960081116545E+00  4.989841603244E+00  5.019780652864E+00
  5.049899336781E+00  5.080198732802E+00  5.110679925199E+00  5.141344004750E+00
  5.172192068778E+00  5.203225221191E+00  5.234444572518E+00  5.265851239953E+00
  5.297446347393E+00  5.329231025477E+00  5.361206411630E+00  5.393373650100E+00
  5.425733892001E+00  5.458288295353E+00  5.491038025125E+00  5.523984253275E+00
  5.557128158795E+00  5.590470927748E+00  5.624013753314E+00  5.657757835834E+00
  5.691704382849E+00  5.725854609146E+00  5.760209736801E+00  5.794770995222E+00
  5.829539621193E+00  5.864516858920E+00  5.899703960074E+00  5.935102183834E+00
  5.970712796937E+00  6.006537073719E+00  6.042576296161E+00  6.078831753938E+00
  6.115304744462E+00  6.151996572929E+00  6.188908552366E+00  6.226042003681E+00
  6.263398255703E+00  6.300978645237E+00  6.338784517108E+00  6.376817224211E+00
  6.415078127556E+00  6.453568596322E+00  6.492290007899E+00  6.531243747947E+00
  6.570431210435E+00  6.609853797697E+00  6.649512920483E+00  6.689409998006E+00
  6.729546457994E+00  6.769923736742E+00  6.810543279163E+00  6.851406538838E+00
  6.892514978071E+00  6.933870067939E+00  6.975473288347E+00  7.017326128077E+00
  7.059430084845E+00  7.101786665354E+00  7.144397385346E+00  7.187263769659E+00
  7.230387352277E+00  7.273769676390E+00  7.317412294449E+00  7.361316768215E+00
  7.405484668824E+00  7.449917576837E+00  7.494617082298E+00  7.539584784792E+00
  7.584822293501E+00  7.630331227262E+00  7.676113214626E+00  7.722169893913E+00
  7.768502913277E+00  7.815113930756E+00  7.862004614341E+00  7.909176642027E+00
  7.956631701879E+00  8.004371492090E+00  8.052397721043E+00  8.100712107369E+00
  8.149316380014E+00  8.198212278294E+00  8.247401551963E+00  8.296885961275E+00
  8.346667277043E+00  8.396747280705E+00  8.447127764389E+00  8.497810530976E+00
  8.548797394161E+00  8.600090178526E+00  8.651690719598E+00  8.703600863915E+00
  8.755822469099E+00  8.808357403913E+00  8.861207548337E+00  8.914374793627E+00
  8.967861042389E+00  9.021668208643E+00  9.075798217895E+00  9.130253007202E+00
  9.185034525245E+00  9.240144732397E+00  9.295585600791E+00  9.351359114396E+00
  9.407467269082E+00  9.463912072697E+00  9.520695545133E+00  9.577819718404E+00
  9.635286636714E+00  9.693098356534E+00  9.751256946674E+00  9.809764488354E+00
  9.868623075284E+00  9.927834813736E+00  9.987401822618E+00  1.004732623355E+01
  1.010761019095E+01  1.016825585210E+01  1.022926538721E+01  1.029064097954E+01
  1.035238482541E+01  1.041449913437E+01  1.047698612917E+01  1.053984804595E+01
  1.060308713422E+01  1.066670565703E+01  1.073070589097E+01  1.079509012632E+01
  1.085986066707E+01  1.092501983108E+01  1.099056995006E+01  1.105651336976E+01
  1.112285244998E+01  1.118958956468E+01  1.125672710207E+01  1.132426746468E+01
  1.139221306947E+01  1.146056634789E+01  1.152932974597E+01  1.159850572445E+01
  1.166809675880E+01  1.173810533935E+01  1.180853397139E+01  1.187938517521E+01
  1.195066148627E+01  1.202236545518E+01  1.209449964791E+01  1.216706664580E+01
  1.224006904568E+01  1.231350945995E+01  1.238739051671E+01  1.246171485981E+01
  1.253648514897E+01  1.261170405986E+01  1.268737428422E+01  1.276349852993E+01
  1.284007952111E+01  1.291711999823E+01  1.299462271822E+01  1.307259045453E+01
  1.315102599726E+01  1.322993215324E+01  1.330931174616E+01  1.338916761664E+01
  1.346950262234E+01  1.355031963807E+01  1.363162155590E+01  1.371341128524E+01
  1.379569175295E+01  1.387846590347E+01  1.396173669889E+01  1.404550711908E+01
  1.412978016180E+01  1.421455884277E+01  1.429984619582E+01  1.438564527300E+01
  1.447195914464E+01  1.455879089950E+01  1.464614364490E+01  1.473402050677E+01
  1.482242462981E+01  1.491135917759E+01  1.500082733266E+01  1.509083229665E+01
  1.518137729043E+01  1.527246555417E+01  1.536410034750E+01  1.545628494958E+01
  1.554902265928E+01  1.564231679524E+01  1.573617069601E+01  1.583058772018E+01
  1.592557124651E+01  1.602112467398E+01  1.611725142203E+01  1.621395493056E+01
  1.631123866014E+01  1.640910609211E+01  1.650756072866E+01  1.660660609303E+01
  1.670624572959E+01  1.680648320397E+01  1.690732210319E+01  1.700876603581E+01
  1.711081863202E+01  1.721348354382E+01  1.731676444508E+01  1.742066503175E+01
  1.752518902194E+01  1.763034015607E+01  1.773612219701E+01  1.784253893019E+01
  1.794959416377E+01  1.805729172875E+01  1.816563547913E+01  1.827462929200E+01
  1.838427706775E+01  1.849458273016E+01  1.860555022654E+01  1.871718352790E+01
  1.882948662907E+01  1.894246354884E+01  1.905611833013E+01  1.917045504011E+01
  1.928547777036E+01  1.940119063698E+01  1.951759778080E+01  1.963470336748E+01
  1.975251158769E+01  1.987102665722E+01  1.999025281716E+01  2.011019433406E+01
  2.023085550007E+01  2.035224063307E+01  2.047435407686E+01  2.059720020133E+01
  2.072078340253E+01  2.084510810295E+01  2.097017875157E+01  2.109599982408E+01
  2.122257582302E+01  2.134991127796E+01  2.147801074563E+01  2.160687881010E+01
  2.173652008296E+01  2.186693920346E+01  2.199814083868E+01  2.213012968371E+01
  2.226291046181E+01  2.239648792458E+01  2.253086685213E+01  2.266605205324E+01
  2.280204836556E+01  2.293886065576E+01  2.307649381969E+01  2.321495278261E+01
  2.335424249931E+01  2.349436795430E+01  2.363533416203E+01  2.377714616700E+01
  2.391980904400E+01  2.406332789827E+01  2.420770786566E+01  2.435295411285E+01
  2.449907183753E+01  2.464606626855E+01  2.479394266616E+01  2.494270632216E+01
  2.509236256009E+01  2.524291673545E+01  2.539437423587E+01  2.554674048128E+01
  2.570002092417E+01  2.585422104971E+01  2.600934637601E+01  2.616540245427E+01
  2.632239486899E+01  2.648032923821E+01  2.663921121364E+01  2.679904648092E+01
  2.695984075980E+01  2.712159980436E+01  2.728432940319E+01  2.744803537961E+01
  2.761272359189E+01  2.777839993344E+01  2.794507033304E+01  2.811274075504E+01
  2.828141719957E+01  2.845110570276E+01  2.862181233698E+01  2.879354321100E+01
  2.896630447027E+01  2.914010229709E+01  2.931494291087E+01  2.949083256834E+01
  2.966777756375E+01  2.984578422913E+01  3.002485893451E+01  3.020500808811E+01
  3.038623813664E+01  3.056855556546E+01  3.075196689885E+01  3.093647870025E+01
  3.112209757245E+01  3.130883015788E+01  3.149668313883E+01  3.168566323766E+01
  3.187577721709E+01  3.206703188039E+01  3.225943407167E+01  3.245299067610E+01
  3.264770862016E+01  3.284359487188E+01  3.304065644111E+01  3.323890037976E+01
  3.343833378204E+01  3.363896378473E+01  3.384079756744E+01  3.404384235284E+01
  3.424810540696E+01  3.445359403940E+01  3.466031560364E+01  3.486827749726E+01
  3.507748716224E+01  3.528795208522E+01  3.549967979773E+01  3.571267787652E+01
  3.592695394377E+01  3.614251566744E+01  3.635937076144E+01  3.657752698601E+01
  3.679699214793E+01  3.701777410081E+01  3.723988074542E+01  3.746332002989E+01
  3.768809995007E+01  3.791422854977E+01  3.814171392107E+01  3.837056420460E+01
  3.860078758982E+01  3.883239231536E+01  3.906538666925E+01  3.929977898927E+01
  3.953557766321E+01  3.977279112919E+01  4.001142787596E+01  4.025149644322E+01
  4.049300542188E+01  4.073596345441E+01  4.098037923513E+01  4.122626151054E+01
  4.147361907961E+01  4.172246079408E+01  4.197279555885E+01  4.222463233220E+01
  4.247798012620E+01  4.273284800695E+01  4.298924509499E+01  4.324718056556E+01
  4.350666364896E+01  4.376770363085E+01  4.403030985264E+01  4.429449171175E+01
  4.456025866202E+01
</grid-data>
</grid>
<valence-charge total-charge="16" is-unscreening-charge="yes"
 rescaled-to-z-pseudo="no">
<radfunc>
<data npts="797">
  9.943049008077E-04  9.963841441603E-04  1.004291789983E-03  1.023087563107E-03
  1.060879333324E-03  1.131254245367E-03  1.249747085858E-03  1.434386919799E-03
  1.716125090094E-03  2.113935651985E-03  2.666017262013E-03  3.390736690969E-03
  4.362298538375E-03  5.630614293541E-03  7.241101677876E-03  9.227946037688E-03
  1.160643707549E-02  1.436530641070E-02  1.784582090317E-02  2.174946311444E-02
  2.655868093938E-02  3.176090036633E-02  3.801897736264E-02  4.554417442054E-02
  5.336536709755E-02  6.254839657704E-02  7.332544676588E-02  8.596674382404E-02
  9.852266698500E-02  1.129050761917E-01  1.293714223919E-01  1.482133938355E-01
  1.697609737224E-01  1.900515635011E-01  2.127196745715E-01  2.380308992255E-01
  2.662779335544E-01  2.977828390253E-01  3.328993896713E-01  3.720154837302E-01
  4.064719827599E-01  4.439942984996E-01  4.848344016303E-01  5.292618022122E-01
  5.775642773406E-01  6.300485438832E-01  6.870408569412E-01  7.488875116514E-01
  8.159552226412E-01  8.886313518442E-01  9.673239515017E-01  1.052461585024E+00
  1.120813508279E+00  1.193239164617E+00  1.269940865154E+00  1.351126465534E+00
  1.437008963167E+00  1.527806006776E+00  1.623739309505E+00  1.725033956420E+00
  1.831917596862E+00  1.944619511812E+00  2.063369546140E+00  2.188396895496E+00
  2.319928737514E+00  2.458188697107E+00  2.603395135840E+00  2.755759255818E+00
  2.915483009115E+00  3.082756804677E+00  3.257757005758E+00  3.440643212415E+00
  3.631555325389E+00  3.830610389902E+00  4.037899220486E+00  4.180697549581E+00
  4.327193063744E+00  4.477388538100E+00  4.631279051017E+00  4.788851430880E+00
  4.950083689018E+00  5.114944440334E+00  5.283392313417E+00  5.455375352186E+00
  5.630830411373E+00  5.809682548450E+00  5.991844414896E+00  6.177215650014E+00
  6.365682280824E+00  6.557116131916E+00  6.751374249444E+00  6.948298343831E+00
  7.147714256075E+00  7.349431452914E+00  7.553242556443E+00  7.758922914115E+00
  7.966230215386E+00  8.174904161593E+00  8.384666195901E+00  8.595219300463E+00
  8.806247868139E+00  9.017417656309E+00  9.228375830463E+00  9.438751105336E+00
  9.648153991374E+00  9.856177154269E+00  1.006239589517E+01  1.026636875900E+01
  1.046763827785E+01  1.066573185635E+01  1.086016280483E+01  1.105043152606E+01
  1.123602686007E+01  1.141642759096E+01  1.159110411839E+01  1.175952029527E+01
  1.192113543196E+01  1.207540646554E+01  1.222179029144E+01  1.235974625253E+01
  1.248873877920E+01  1.260824017179E+01  1.271773351457E+01  1.281671570825E+01
  1.290470060571E+01  1.298122223318E+01  1.304583807678E+01  1.309813241200E+01
  1.313771965097E+01  1.316424768068E+01  1.317740116256E+01  1.317690476216E+01
  1.317146352485E+01  1.316252627586E+01  1.315007121939E+01  1.313407961973E+01
  1.311453588459E+01  1.309142764485E+01  1.306474583045E+01  1.303448474213E+01
  1.300064211869E+01  1.296321919952E+01  1.292222078211E+01  1.287765527423E+01
  1.282953474054E+01  1.277787494337E+01  1.272269537727E+01  1.266401929734E+01
  1.260187374080E+01  1.253628954181E+01  1.246730133917E+01  1.239494757673E+01
  1.231927049638E+01  1.224031612336E+01  1.215813424375E+01  1.207277837410E+01
  1.198430572291E+01  1.189277714402E+01  1.179825708174E+01  1.170081350770E+01
  1.160051784944E+01  1.149744491061E+01  1.139167278298E+01  1.128328275015E+01
  1.117235918312E+01  1.105898942790E+01  1.094326368508E+01  1.082527488180E+01
  1.070511853609E+01  1.058289261392E+01  1.045869737924E+01  1.033263523719E+01
  1.020481057089E+01  1.007532957213E+01  9.944300066285E+00  9.811831331972E+00
  9.678033915724E+00  9.543019442274E+00  9.406900420848E+00  9.269790047998E+00
  9.131802007503E+00  8.993050267871E+00  8.853648878020E+00  8.713711761713E+00
  8.573352511343E+00  8.432684181679E+00  8.291819084197E+00  8.150868582611E+00
  8.009942890246E+00  7.869150869887E+00  7.728599836731E+00  7.588395365080E+00
  7.448641099408E+00  7.309438570394E+00  7.170887016557E+00  7.033083212068E+00
  6.896121301306E+00  6.760092640730E+00  6.625085648581E+00  6.491185662930E+00
  6.358474808539E+00  6.227031872985E+00  6.096932192460E+00  5.968247547618E+00
  5.841046069811E+00  5.715392158013E+00  5.591346406686E+00  5.468965544798E+00
  5.348302386175E+00  5.229405791298E+00  5.112320640626E+00  4.997087819478E+00
  4.883744214456E+00  4.772322721342E+00  4.662852264358E+00  4.555357826634E+00
  4.449860491677E+00  4.346377495589E+00  4.244922289745E+00  4.145504613595E+00
  4.048130577205E+00  3.952802753139E+00  3.859520277216E+00  3.768278957656E+00
  3.679071392118E+00  3.591887092052E+00  3.506712613826E+00  3.423531696010E+00
  3.342325402215E+00  3.263072268847E+00  3.185748457140E+00  3.110327908803E+00
  3.036782504626E+00  2.965082225373E+00  2.895195314290E+00  2.827088440575E+00
  2.760726863129E+00  2.696074593950E+00  2.633094560514E+00  2.571748766522E+00
  2.511998450389E+00  2.453804240871E+00  2.397126309271E+00  2.341924517632E+00
  2.288158562422E+00  2.235788113162E+00  2.184772945536E+00  2.135073068526E+00
  2.086648845125E+00  2.039461106256E+00  1.993471257512E+00  1.948641378395E+00
  1.904934313753E+00  1.862313757139E+00  1.820744325889E+00  1.780191627706E+00
  1.740622318612E+00  1.702004152154E+00  1.664306019791E+00  1.627497982455E+00
  1.591551293276E+00  1.556438411526E+00  1.522133007657E+00  1.488609959557E+00
  1.455845341212E+00  1.423816404185E+00  1.392501550814E+00  1.361880300079E+00
  1.331933246445E+00  1.302642012171E+00  1.273989169084E+00  1.245958059487E+00
  1.218532567765E+00  1.191697108618E+00  1.165436608085E+00  1.139736486268E+00
  1.114582639297E+00  1.089961420723E+00  1.065859622544E+00  1.042264456073E+00
  1.019163532837E+00  9.965448457126E-01  9.743967504770E-01  9.527079479363E-01
  9.314674667994E-01  9.106646475553E-01  8.902891275488E-01  8.703308272921E-01
  8.507799382003E-01  8.316269116947E-01  8.128624497460E-01  7.944775067838E-01
  7.764633329171E-01  7.588115386491E-01  7.415140988740E-01  7.245633242934E-01
  7.079518185105E-01  6.916724104881E-01  6.757181379782E-01  6.600822511192E-01
  6.447582006509E-01  6.297396320437E-01  6.150203787933E-01  6.005944559042E-01
  5.864560534802E-01  5.725995304290E-01  5.590194082871E-01  5.457103651713E-01
  5.326672298630E-01  5.198849760273E-01  5.073587165745E-01  4.950836981646E-01
  4.830552958590E-01  4.712690079219E-01  4.597204507725E-01  4.484053540908E-01
  4.373195560760E-01  4.264589988604E-01  4.158197240770E-01  4.053978685804E-01
  3.951896603236E-01  3.851914143862E-01  3.753995291538E-01  3.658104826484E-01
  3.564208290062E-01  3.472271951024E-01  3.382262773197E-01  3.294148384584E-01
  3.207897047855E-01  3.123477632203E-01  3.040859586531E-01  2.960012913938E-01
  2.880908147477E-01  2.803516327157E-01  2.727808978134E-01  2.653758090084E-01
  2.581336097700E-01  2.510515862293E-01  2.441270654450E-01  2.373574137717E-01
  2.307400353276E-01  2.242723705568E-01  2.179518948834E-01  2.117761174531E-01
  2.057425799603E-01  1.998488555542E-01  1.940925478236E-01  1.884712898544E-01
  1.829827433576E-01  1.776245978647E-01  1.723945699857E-01  1.672904027278E-01
  1.623098648715E-01  1.574507504002E-01  1.527108779810E-01  1.480880904935E-01
  1.435802546035E-01  1.391852603798E-01  1.349010209497E-01  1.307254721927E-01
  1.266565724683E-01  1.226923023756E-01  1.188306645443E-01  1.150696834517E-01
  1.114074052668E-01  1.078418977169E-01  1.043712499768E-01  1.009935725773E-01
  9.770699733194E-02  9.450967728012E-02  9.139978664528E-02  8.837552080616E-02
  8.543509628023E-02  8.257675071752E-02  7.979874290399E-02  7.709935277281E-02
  7.447688142280E-02  7.192965114270E-02  6.945600544039E-02  6.705430907607E-02
  6.472294809847E-02  6.246032988333E-02  6.026488317323E-02  5.813505811809E-02
  5.606932631557E-02  5.406618085077E-02  5.212413633445E-02  5.024172893930E-02
  4.841751643354E-02  4.665007821139E-02  4.493801531988E-02  4.327995048138E-02
  4.167452811155E-02  4.012041433205E-02  3.861629697783E-02  3.716088559828E-02
  3.575291145215E-02  3.439112749565E-02  3.307430836353E-02  3.180125034271E-02
  3.057077133828E-02  2.938171083148E-02  2.823292982952E-02  2.712331080686E-02
  2.605175763801E-02  2.501719552138E-02  2.401857089428E-02  2.305485133880E-02
  2.212502547858E-02  2.122810286637E-02  2.036311386236E-02  1.952910950329E-02
  1.872516136234E-02  1.795036139994E-02  1.720382180548E-02  1.648467483014E-02
  1.579207261094E-02  1.512518698613E-02  1.448320930230E-02  1.386535021317E-02
  1.327083947052E-02  1.269892570752E-02  1.214887621453E-02  1.161997670803E-02
  1.111153109266E-02  1.062286121698E-02  1.015330662316E-02  9.702224290995E-03
  9.268988376691E-03  8.852989946726E-03  8.453636707236E-03  8.070352729316E-03
  7.702578170638E-03  7.349768993789E-03  7.011396681758E-03  6.686947950950E-03
  6.375924462155E-03  6.077842529860E-03  5.792232830297E-03  5.518640108617E-03
  5.256622885578E-03  5.005753164092E-03  4.765616136026E-03  4.535809889568E-03
  4.315945117529E-03  4.105644826877E-03  3.904544049837E-03  3.712289556835E-03
  3.528539571583E-03  3.352963488564E-03  3.185241593176E-03  3.025064784767E-03
  2.872134302788E-03  2.726161456269E-03  2.586867356811E-03  2.453982655260E-03
  2.327247282243E-03  2.206410192692E-03  2.091229114490E-03  1.981470301367E-03
  1.876908290126E-03  1.777325662309E-03  1.682512810355E-03  1.592267708321E-03
  1.506395687217E-03  1.424709214981E-03  1.347027681121E-03  1.273177186044E-03
  1.202990335059E-03  1.136306037068E-03  1.072969307909E-03  1.012831078338E-03
  9.557480066156E-04  9.015822956539E-04  8.502015146874E-04  8.014784254069E-04
  7.552908125052E-04  7.115213185719E-04  6.700572832715E-04  6.307905867377E-04
  5.936174971107E-04  5.584385221460E-04  5.251582648173E-04  4.936852828376E-04
  4.639319520212E-04  4.358143334069E-04  4.092520440655E-04  3.841681315123E-04
  3.604889516467E-04  3.381440501416E-04  3.170660472075E-04  2.971905256531E-04
  2.784559221715E-04  2.608034217772E-04  2.441768553225E-04  2.285226000251E-04
  2.137894829361E-04  1.999286872844E-04  1.868936616299E-04  1.746400317633E-04
  1.631255152907E-04  1.523098388408E-04  1.421546578375E-04  1.326234787799E-04
  1.236815839714E-04  1.152959586464E-04  1.074352204373E-04  1.000695511316E-04
  9.317063066584E-05  8.671157330697E-05  8.066686597053E-05  7.501230862735E-05
  6.972495675040E-05  6.478306575462E-05  6.016603738295E-05  5.585436799263E-05
  5.182959869620E-05  4.807426731234E-05  4.457186208214E-05  4.130677710677E-05
  3.826426946315E-05  3.543041795442E-05  3.279208345271E-05  3.033687079180E-05
  2.805309216792E-05  2.592973200715E-05  2.395641325846E-05  2.212336507164E-05
  2.042139181994E-05  1.884184342760E-05  1.737658696289E-05  1.601797945774E-05
  1.475884191557E-05  1.359243446923E-05  1.251243265178E-05  1.151290474311E-05
  1.058829015600E-05  9.733378825871E-06  8.943291569085E-06  8.213461375046E-06
  7.539615598281E-06  6.917759017093E-06  6.344157726168E-06  5.815323831142E-06
  5.328000913834E-06  4.879150237592E-06  4.465937662861E-06  4.085721243865E-06
  3.736039477997E-06  3.414600180274E-06  3.119269955958E-06  2.848064245209E-06
  2.599137914372E-06  2.370776369290E-06  2.161387166769E-06  1.969492101089E-06
  1.793719743203E-06  1.632798411022E-06  1.485549549928E-06  1.350881503376E-06
  1.227783654195E-06  1.115320917905E-06  1.012628570078E-06  9.189073904640E-07
  8.334191072868E-07  7.554821257944E-07  6.844675257931E-07  6.197953135466E-07
  5.609309140443E-07  5.073818902577E-07  4.586948765998E-07  4.144527143814E-07
  3.742717776249E-07  3.377994781381E-07  3.047119392873E-07  2.747118284158E-07