Po    ONCVPSP-4.0.1  r_core=   2.15958   2.21188   1.90464   2.00999
84.0000     16.0000      220131    zatom,zion,pspd
8      11   3     4   600     0    pspcod,pspxc,lmax,lloc,mmax,r2well
5.99000000  6.00000000  0.00000000    rchrg fchrg qchrg
3     2     2     1     0    nproj
1     1           extension_switch
0                         1.1387051222835E+01  2.8580798775314E+00  5.0099184777878E-01
1  0.0000000000000E+00 -5.4571652752244E-11  3.9229411386010E-11  5.0739155932344E-11
2  1.0000000000000E-02  2.7045077800099E-02 -4.8166391368485E-03  3.3390226216435E-03
3  2.0000000000000E-02  5.4054190164889E-02 -9.6269459336974E-03  6.7423673363650E-03
4  3.0000000000000E-02  8.0991623004607E-02 -1.4424661521738E-02  1.0273876179719E-02
5  4.0000000000000E-02  1.0782216292552E-01 -1.9203672894958E-02  1.3996433744791E-02
6  5.0000000000000E-02  1.3451134260412E-01 -2.3958083152502E-02  1.7971495129473E-02
7  6.0000000000000E-02  1.6102568023135E-01 -2.8682278542007E-02  2.2258621850010E-02
8  7.0000000000000E-02  1.8733291111445E-01 -3.3370991283602E-02  2.6915028316219E-02
9  8.0000000000000E-02  2.1340220957828E-01 -3.8019357193456E-02  3.1995141413075E-02
10  9.0000000000000E-02  2.3920439937573E-01 -4.2622967173865E-02  3.7550175669555E-02
11  1.0000000000000E-01  2.6471215089657E-01 -4.7177911694363E-02  4.3627726420822E-02
12  1.1000000000000E-01  2.8990016355644E-01 -5.1680817453517E-02  5.0271383281788E-02
13  1.2000000000000E-01  3.1474533185120E-01 -5.6128875485204E-02  5.7520366152348E-02
14  1.3000000000000E-01  3.3922689367619E-01 -6.0519860053697E-02  6.5409185864138E-02
15  1.4000000000000E-01  3.6332655963484E-01 -6.4852137769968E-02  7.3967331458871E-02
16  1.5000000000000E-01  3.8702862219484E-01 -6.9124666455880E-02  8.3218985958495E-02
17  1.6000000000000E-01  4.1032004369259E-01 -7.3336983381809E-02  9.3182772346709E-02
18  1.7000000000000E-01  4.3319052233685E-01 -7.7489182607998E-02  1.0387153133377E-01
19  1.8000000000000E-01  4.5563253551920E-01 -8.1581881267880E-02  1.1529213231932E-01
20  1.9000000000000E-01  4.7764135990153E-01 -8.5616174742686E-02  1.2744531880335E-01
21  2.0000000000000E-01  4.9921506791787E-01 -8.9593580790535E-02  1.4032558932489E-01
22  2.1000000000000E-01  5.2035450049832E-01 -9.3515972807351E-02  1.5392111482927E-01
23  2.2000000000000E-01  5.4106321599661E-01 -9.7385502513281E-02  1.6821369318411E-01
24  2.3000000000000E-01  5.6134741547663E-01 -1.0120451247195E-01  1.8317874137438E-01
25  2.4000000000000E-01  5.8121584468869E-01 -1.0497543896466E-01  1.9878532571852E-01
26  2.5000000000000E-01  6.0067967323960E-01 -1.0870070585182E-01  2.1499623025163E-01
27  2.6000000000000E-01  6.1975235163287E-01 -1.1238261016273E-01  2.3176806322734E-01
28  2.7000000000000E-01  6.3844944702335E-01 -1.1602320025825E-01  2.4905140149193E-01
29  2.8000000000000E-01  6.5678845869556E-01 -1.1962414751062E-01  2.6679097228882E-01
30  2.9000000000000E-01  6.7478861443272E-01 -1.2318661253692E-01  2.8492587185307E-01
31  3.0000000000000E-01  6.9247064909662E-01 -1.2671110710992E-01  3.0338981996225E-01
32  3.1000000000000E-01  7.0985656688252E-01 -1.3019735294957E-01  3.2211144941848E-01
33  3.2000000000000E-01  7.2696938884902E-01 -1.3364413866746E-01  3.4101462924528E-01
34  3.3000000000000E-01  7.4383288744974E-01 -1.3704917620119E-01  3.6001882020165E-01
35  3.4000000000000E-01  7.6047130990892E-01 -1.4040895812604E-01  3.7903946103525E-01
36  3.5000000000000E-01  7.7690909238754E-01 -1.4371861727435E-01  3.9798838372341E-01
37  3.6000000000000E-01  7.9317056697901E-01 -1.4697179012536E-01  4.1677425578711E-01
38  3.7000000000000E-01  8.0927966365225E-01 -1.5016048544765E-01  4.3530304760303E-01
39  3.8000000000000E-01  8.2525960932613E-01 -1.5327495968683E-01  4.5347852249214E-01
40  3.9000000000000E-01  8.4113262631038E-01 -1.5630360058734E-01  4.7120274722259E-01
41  4.0000000000000E-01  8.5691963238484E-01 -1.5923282052287E-01  4.8837662043553E-01
42  4.1000000000000E-01  8.7263994481131E-01 -1.6204696098415E-01  5.0490041638768E-01
43  4.2000000000000E-01  8.8831099057733E-01 -1.6472820963117E-01  5.2067434129264E-01
44  4.3000000000000E-01  9.0394802516368E-01 -1.6725653126935E-01  5.3559909945684E-01
45  4.4000000000000E-01  9.1956386210054E-01 -1.6960961404185E-01  5.4957646631804E-01
46  4.5000000000000E-01  9.3516861553833E-01 -1.7176283205853E-01  5.6250986543364E-01
47  4.6000000000000E-01  9.5076945800114E-01 -1.7368922559258E-01  5.7430494640809E-01
48  4.7000000000000E-01  9.6637039542011E-01 -1.7535949987948E-01  5.8487016071405E-01
49  4.8000000000000E-01  9.8197206145606E-01 -1.7674204344357E-01  5.9411733233580E-01
50  4.9000000000000E-01  9.9757153301932E-01 -1.7780296675855E-01  6.0196222015678E-01
51  5.0000000000000E-01  1.0131621687778E+00 -1.7850616191979E-01  6.0832506901817E-01
52  5.1000000000000E-01  1.0287334723147E+00 -1.7881338386957E-01  6.1313114640048E-01
53  5.2000000000000E-01  1.0442709814542E+00 -1.7868435356991E-01  6.1631126171529E-01
54  5.3000000000000E-01  1.0597561851172E+00 -1.7807688336642E-01  6.1780226525074E-01
55  5.4000000000000E-01  1.0751664689028E+00 -1.7694702462729E-01  6.1754752388214E-01
56  5.5000000000000E-01  1.0904750904146E+00 -1.7524923757737E-01  6.1549737074404E-01
57  5.6000000000000E-01  1.1056511851618E+00 -1.7293658307984E-01  6.1160952616079E-01
58  5.7000000000000E-01  1.1206598036710E+00 -1.6996093594642E-01  6.0584948724666E-01
59  5.8000000000000E-01  1.1354619802443E+00 -1.6627321918455E-01  5.9819088371736E-01
60  5.9000000000000E-01  1.1500148335858E+00 -1.6182365841590E-01  5.8861579759697E-01
61  6.0000000000000E-01  1.1642716993101E+00 -1.5656205552693E-01  5.7711504466154E-01
62  6.1000000000000E-01  1.1781822941281E+00 -1.5043808044252E-01  5.6368841563207E-01
63  6.2000000000000E-01  1.1916929112869E+00 -1.4340157974375E-01  5.4834487531079E-01
64  6.3000000000000E-01  1.2047466466222E+00 -1.3540290068743E-01  5.3110271804754E-01
65  6.4000000000000E-01  1.2172836543633E+00 -1.2639322902697E-01  5.1198967812958E-01
66  6.5000000000000E-01  1.2292414316154E+00 -1.1632493888216E-01  4.9104299390075E-01
67  6.6000000000000E-01  1.2405551302327E+00 -1.0515195276186E-01  4.6830942463894E-01
68  6.7000000000000E-01  1.2511578945875E+00 -9.2830109709680E-02  4.4384521945207E-01
69  6.8000000000000E-01  1.2609812235431E+00 -7.9317539418894E-02  4.1771603769043E-01
70  6.9000000000000E-01  1.2699553547451E+00 -6.4575040049917E-02  3.8999682061427E-01
71  7.0000000000000E-01  1.2780096691634E+00 -4.8566457384615E-02  3.6077161430467E-01
72  7.1000000000000E-01  1.2850731136479E+00 -3.1259062865987E-02  3.3013334405597E-01
73  7.2000000000000E-01  1.2910746390990E+00 -1.2623927998403E-02  2.9818354073760E-01
74  7.3000000000000E-01  1.2959436517101E+00  7.3637074705299E-03  2.6503201986913E-01
75  7.4000000000000E-01  1.2996104746089E+00  2.8724076205983E-02  2.3079651440389E-01
76  7.5000000000000E-01  1.3020068171047E+00  5.1472535424984E-02  1.9560226246197E-01
77  7.6000000000000E-01  1.3030662486548E+00  7.5619233165765E-02  1.5958155150714E-01
78  7.7000000000000E-01  1.3027246745786E+00  1.0116879132660E-01  1.2287322069713E-01
79  7.8000000000000E-01  1.3009208104848E+00  1.2812000808144E-01  8.5622123376086E-02
80  7.9000000000000E-01  1.2975966523331E+00  1.5646558223167E-01  4.7978551905364E-02
81  8.0000000000000E-01  1.2926979390276E+00  1.8619186198821E-01  1.0097627246630E-02
82  8.1000000000000E-01  1.2861746044335E+00  2.1727862059164E-01 -2.7861344078041E-02
83  8.2000000000000E-01  1.2779812157228E+00  2.4969886107480E-01 -6.5735542824805E-02
84  8.3000000000000E-01  1.2680773949927E+00  2.8341865235398E-01 -1.0335933666148E-01
85  8.4000000000000E-01  1.2564282211558E+00  3.1839699869210E-01 -1.4056500341206E-01
86  8.5000000000000E-01  1.2430046091760E+00  3.5458574442490E-01 -1.7718347457727E-01
87  8.6000000000000E-01  1.2277836638237E+00  3.9192951566825E-01 -2.1304509565282E-01
88  8.7000000000000E-01  1.2107490052394E+00  4.3036570053625E-01 -2.4798039964066E-01
89  8.8000000000000E-01  1.1918910637296E+00  4.6982446919981E-01 -2.8182089004432E-01
90  8.9000000000000E-01  1.1712073413751E+00  5.1022883489762E-01 -3.1439982954765E-01
91  9.0000000000000E-01  1.1487026382047E+00  5.5149475678497E-01 -3.4555303050841E-01
92  9.1000000000000E-01  1.1243892408752E+00  5.9353128526527E-01 -3.7511964334610E-01
93  9.2000000000000E-01  1.0982870720073E+00  6.3624075020143E-01 -4.0294293887551E-01
94  9.3000000000000E-01  1.0704237985438E+00  6.7951899214514E-01 -4.2887108062522E-01
95  9.4000000000000E-01  1.0408348977350E+00  7.2325563645930E-01 -4.5275788319400E-01
96  9.5000000000000E-01  1.0095636796004E+00  7.6733440993704E-01 -4.7446355272672E-01
97  9.6000000000000E-01  9.7666126497310E-01  8.1163349925092E-01 -4.9385540565019E-01
98  9.7000000000000E-01  9.4218651850276E-01  8.5602595028591E-01 -5.1080856187484E-01
99  9.8000000000000E-01  9.0620593626331E-01  9.0038010713980E-01 -5.2520660877255E-01
100  9.9000000000000E-01  8.6879348789711E-01  9.4456008929589E-01 -5.3694223234642E-01
101  1.0000000000000E+00  8.3003041350728E-01  9.8842630520761E-01 -5.4591781215213E-01
102  1.0100000000000E+00  7.9000497580044E-01  1.0318360002656E+00 -5.5204597667761E-01
103  1.0200000000000E+00  7.4881216826749E-01  1.0746438368640E+00 -5.5525011606693E-01
104  1.0300000000000E+00  7.0655338047851E-01  1.1167025040311E+00 -5.5546484926004E-01
105  1.0400000000000E+00  6.6333602184855E-01  1.1578633538530E+00 -5.5263644283340E-01
106  1.0500000000000E+00  6.1927310551122E-01  1.1979770616954E+00 -5.4672317904749E-01
107  1.0600000000000E+00  5.7448279420690E-01  1.2368943070138E+00 -5.3769567084733E-01
108  1.0700000000000E+00  5.2908791035440E-01  1.2744664713507E+00 -5.2553712181633E-01
109  1.0800000000000E+00  4.8321541272756E-01  1.3105463499388E+00 -5.1024352934673E-01
110  1.0900000000000E+00  4.3699584239530E-01  1.3449888731716E+00 -4.9182382957101E-01
111  1.1000000000000E+00  3.9056274081076E-01  1.3776518340630E+00 -4.7029998287965E-01
112  1.1100000000000E+00  3.4405204314235E-01  1.4083966177012E+00 -4.4570699914923E-01
113  1.1200000000000E+00  2.9760145013232E-01  1.4370889286078E+00 -4.1809290210482E-01
114  1.1300000000000E+00  2.5134978194126E-01  1.4635995118422E+00 -3.8751863254418E-01
115  1.1400000000000E+00  2.0543631758906E-01  1.4878048636444E+00 -3.5405789046593E-01
116  1.1500000000000E+00  1.6000012373536E-01  1.5095879273895E+00 -3.1779691644789E-01
117  1.1600000000000E+00  1.1517937665038E-01  1.5288387706318E+00 -2.7883421293942E-01
118  1.1700000000000E+00  7.1110681313483E-02  1.5454552390457E+00 -2.3728020643509E-01
119  1.1800000000000E+00  2.7928391637781E-02  1.5593435831310E+00 -1.9325685180488E-01
120  1.1900000000000E+00 -1.4236064144926E-02  1.5704190536317E+00 -1.4689718035739E-01
121  1.2000000000000E+00 -5.5254848892017E-02  1.5786064617287E+00 -9.8344793501023E-02
122  1.2100000000000E+00 -9.5004368720832E-02  1.5838407002036E+00 -4.7753304159659E-02
123  1.2200000000000E+00 -1.3336590795034E-01  1.5860672219326E+00  4.7142716345341E-03
124  1.2300000000000E+00 -1.7022624289053E-01  1.5852424722577E+00  5.8886170278079E-02
125  1.2400000000000E+00 -2.0547823064678E-01  1.5813342719924E+00  1.1458258032646E-01
126  1.2500000000000E+00 -2.3902136922466E-01  1.5743221480554E+00  1.7161638324443E-01
127  1.2600000000000E+00 -2.7076232536333E-01  1.5641976089837E+00  2.2979393178222E-01
128  1.2700000000000E+00 -3.0061542669101E-01  1.5509643628520E+00  2.8891586238764E-01
129  1.2800000000000E+00 -3.2850311498764E-01  1.5346384754261E+00  3.4877793787454E-01
130  1.2900000000000E+00 -3.5435635755023E-01  1.5152484666911E+00  4.0917191640875E-01
131  1.3000000000000E+00 -3.7811501389049E-01  1.4928353442282E+00  4.6988644272854E-01
132  1.3100000000000E+00 -3.9972815524804E-01  1.4674525722610E+00  5.3070795739184E-01
133  1.3200000000000E+00 -4.1915433467204E-01  1.4391659755480E+00  5.9142161974588E-01
134  1.3300000000000E+00 -4.3636180571436E-01  1.4080535776701E+00  6.5181224023181E-01
135  1.3400000000000E+00 -4.5132868807913E-01  1.3742053736379E+00  7.1166521758435E-01
136  1.3500000000000E+00 -4.6404307889026E-01  1.3377230371261E+00  7.7076747645457E-01
137  1.3600000000000E+00 -4.7450310856612E-01  1.2987195630311E+00  8.2890840096832E-01
138  1.3700000000000E+00 -4.8271694062699E-01  1.2573188464340E+00  8.8588075975390E-01
139  1.3800000000000E+00 -4.8870271510543E-01  1.2136551994417E+00  9.4148161800103E-01
140  1.3900000000000E+00 -4.9248843557780E-01  1.1678728077593E+00  9.9551323217719E-01
141  1.4000000000000E+00 -4.9411180018655E-01  1.1201251292284E+00  1.0477839231045E+00
142  1.4100000000000E+00 -4.9361997737522E-01  1.0705742369341E+00  1.0981089232038E+00
143  1.4200000000000E+00 -4.9106932740807E-01  1.0193901098431E+00  1.1463111938348E+00
144  1.4300000000000E+00 -4.8652507109178E-01  9.6674987428363E-01  1.1922222088052E+00
145  1.4400000000000E+00 -4.8006090745735E-01  9.1283699990847E-01  1.2356827002801E+00
146  1.4500000000000E+00 -4.7175858248896E-01  8.5784045409506E-01  1.2765433635095E+00
147  1.4600000000000E+00 -4.6170741130972E-01  8.0195381903598E-01  1.3146655169784E+00
148  1.4700000000000E+00 -4.5000375653881E-01  7.4537437604148E-01  1.3499217148080E+00
149  1.4800000000000E+00 -4.3675046582835E-01  6.8830216183047E-01  1.3821963084521E+00
150  1.4900000000000E+00 -4.2205627186245E-01  6.3093900180846E-01  1.4113859549802E+00
151  1.5000000000000E+00 -4.0603515835755E-01  5.7348752553157E-01  1.4374000694850E+00
152  1.5100000000000E+00 -3.8880569583906E-01  5.1615016972533E-01  1.4601612194143E+00
153  1.5200000000000E+00 -3.7049035118155E-01  4.5912817436809E-01  1.4796054588958E+00
154  1.5300000000000E+00 -3.5121477509043E-01  4.0262057746017E-01  1.4956826013987E+00
155  1.5400000000000E+00 -3.3110707186604E-01  3.4682321417732E-01  1.5083564293589E+00
156  1.5500000000000E+00 -3.1029705593087E-01  2.9192772615727E-01  1.5176048396717E+00
157  1.5600000000000E+00 -2.8891549970850E-01  2.3812058667773E-01  1.5234199242519E+00
158  1.5700000000000E+00 -2.6709337752743E-01  1.8558214746865E-01  1.5258079851386E+00
159  1.5800000000000E+00 -2.4496111027530E-01  1.3448571284806E-01  1.5247894839104E+00
160  1.5900000000000E+00 -2.2264781555259E-01  8.4996646784381E-02  1.5203989254562E+00
161  1.6000000000000E+00 -2.0028056806989E-01  3.7271518370369E-02  1.5126846764276E+00
162  1.6100000000000E+00 -1.7798367499629E-01 -8.5427089584044E-03  1.5017087189650E+00
163  1.6200000000000E+00 -1.5587797090209E-01 -5.2309439309526E-02  1.4875463405550E+00
164  1.6300000000000E+00 -1.3408013684306E-01 -9.3903152389646E-02  1.4702857611351E+00
165  1.6400000000000E+00 -1.1270204801072E-01 -1.3321005303818E-01  1.4500276988000E+00
166  1.6500000000000E+00 -9.1850154220485E-02 -1.7012865782129E-01  1.4268848757046E+00
167  1.6600000000000E+00 -7.1624897330251E-02 -2.0457031456845E-01  1.4009814659766E+00
168  1.6700000000000E+00 -5.2120169476166E-02 -2.3645965106093E-01  1.3724524876611E+00
169  1.6800000000000E+00 -3.3422815781106E-02 -2.6573494943206E-01  1.3414431409180E+00
170  1.6900000000000E+00 -1.5612184937115E-02 -2.9234844321075E-01  1.3081080948680E+00
171  1.7000000000000E+00  1.2402692147770E-03 -3.1626653433462E-01  1.2726107256552E+00
172  1.7100000000000E+00  1.7071332280604E-02 -3.3746992786751E-01  1.2351223084384E+00
173  1.7200000000000E+00  3.1826317575887E-02 -3.5595368258473E-01  1.1958211661627E+00
174  1.7300000000000E+00  4.5459295876292E-02 -3.7172717602611E-01  1.1548917780745E+00
175  1.7400000000000E+00  5.7933264828645E-02 -3.8481398307165E-01  1.1125238510545E+00
176  1.7500000000000E+00  6.9220256551988E-02 -3.9525166754875E-01  1.0689113569189E+00
177  1.7600000000000E+00  7.9301382330184E-02 -4.0309148684635E-01  1.0242515389143E+00
178  1.7700000000000E+00  8.8166813676969E-02 -4.0839800998101E-01  9.7874389068880E-01
179  1.7800000000000E+00  9.5815699435576E-02 -4.1124865002171E-01  9.3258911105127E-01
180  1.7900000000000E+00  1.0225601896530E-01 -4.1173311225173E-01  8.8598803786502E-01
181  1.8000000000000E+00  1.0750437185352E-01 -4.0995275990295E-01  8.3914056442546E-01
182  1.8100000000000E+00  1.1158570497830E-01 -4.0601989975115E-01  7.9224454166921E-01
183  1.8200000000000E+00  1.1453297812917E-01 -4.0005699030462E-01  7.4549466954642E-01
184  1.8300000000000E+00  1.1638676976927E-01 -3.9219577574803E-01  6.9908138085895E-01
185  1.8400000000000E+00  1.1719482488872E-01 -3.8257634921850E-01  6.5318972082784E-01
186  1.8500000000000E+00  1.1701154725491E-01 -3.7134614938847E-01  6.0799822560360E-01
187  1.8600000000000E+00  1.1589743870789E-01 -3.5865889470862E-01  5.6367780287545E-01
188  1.8700000000000E+00  1.1391848847598E-01 -3.4467346002012E-01  5.2039061766969E-01
189  1.8800000000000E+00  1.1114551577906E-01 -3.2955270050845E-01  4.7828898594405E-01
190  1.8900000000000E+00  1.0765346923092E-01 -3.1346222814759E-01  4.3751427813215E-01
191  1.9000000000000E+00  1.0352068863723E-01 -2.9656915285127E-01  3.9819587104716E-01
192  1.9100000000000E+00  9.8828124157457E-02 -2.7904075905859E-01  3.6044995390624E-01
193  1.9200000000000E+00  9.3658585717188E-02 -2.6104339117897E-01  3.2437971794076E-01
194  1.9300000000000E+00  8.8096033245417E-02 -2.4274154462545E-01  2.9007660636349E-01
195  1.9400000000000E+00  8.2224837189689E-02 -2.2429686179325E-01  2.5762078751932E-01
196  1.9500000000000E+00  7.6128982307383E-02 -2.0586693615771E-01  2.2708046823654E-01
197  1.9600000000000E+00  6.9891270827106E-02 -1.8760414571763E-01  1.9851140879789E-01
198  1.9700000000000E+00  6.3592522104689E-02 -1.6965448949650E-01  1.7195643242518E-01
199  1.9800000000000E+00  5.7310774573264E-02 -1.5215643796674E-01  1.4744496496812E-01
200  1.9900000000000E+00  5.1120494643839E-02 -1.3523980307746E-01  1.2499260470450E-01
201  2.0000000000000E+00  4.5091797135812E-02 -1.1902463335964E-01  1.0460072174192E-01
202  2.0100000000000E+00  3.9289681825413E-02 -1.0362013963535E-01  8.6256087071512E-02
203  2.0200000000000E+00  3.3773298916445E-02 -8.9123667809836E-02  6.9930540570169E-02
204  2.0300000000000E+00  2.8595135354866E-02 -7.5619571093687E-02  5.5580562017841E-02
205  2.0400000000000E+00  2.3800696082716E-02 -6.3178781745395E-02  4.3147505043504E-02
206  2.0500000000000E+00  1.9427026150926E-02 -5.1856680612395E-02  3.2555953931966E-02
207  2.0600000000000E+00  1.5494449859968E-02 -4.1682413973915E-02  2.3706212706903E-02
208  2.0700000000000E+00  1.2011320385726E-02 -3.2665653565631E-02  1.6481611461786E-02
209  2.0800000000000E+00  8.9964260367015E-03 -2.4826206685008E-02  1.0773031044216E-02
210  2.0900000000000E+00  6.4572049308455E-03 -1.8163929987093E-02  6.4513547023870E-03
211  2.1000000000000E+00  4.3886210391880E-03 -1.2657285571928E-02  3.3667815167075E-03
212  2.1100000000000E+00  2.7733740947494E-03 -8.2637485757913E-03  1.3498425461084E-03
213  2.1200000000000E+00  1.5815472295989E-03 -4.9194042667226E-03  2.1153157707093E-04
214  2.1300000000000E+00  7.7050107080563E-04 -2.5393720510252E-03 -2.5707877283174E-04
215  2.1400000000000E+00  2.8357584564077E-04 -1.0104745408204E-03 -2.7653381712323E-04
216  2.1500000000000E+00  5.7413134758082E-05 -2.2930186273707E-04 -1.1259447145680E-04
217  2.1600000000000E+00  4.6871327905376E-07  9.0293454402514E-07  6.0953578991766E-06
218  2.1700000000000E+00 -1.0838396389168E-06  6.3787773199284E-06  6.9713492107466E-06
219  2.18  0. -0. -0.
220  2.19 -0.  0.  0.
221  2.20 -0.  0. -0.
222  2.21 -0.  0. -0.
223  2.22  0.  0.  0.
224  2.23  0.  0.  0.
225  2.24  0.  0.  0.
226  2.25  0.  0.  0.
227  2.26  0.  0.  0.
228  2.27  0.  0.  0.
229  2.28  0.  0.  0.
230  2.29  0.  0.  0.
231  2.30  0.  0.  0.
232  2.31  0.  0.  0.
233  2.32  0.  0.  0.
234  2.33  0.  0.  0.
235  2.34  0.  0.  0.
236  2.35  0.  0.  0.
237  2.36  0.  0.  0.
238  2.37  0.  0.  0.
239  2.38  0.  0.  0.
240  2.39  0.  0.  0.
241  2.40  0.  0.  0.
242  2.41  0.  0.  0.
243  2.42  0.  0.  0.
244  2.43  0.  0.  0.
245  2.44  0.  0.  0.
246  2.45  0.  0.  0.
247  2.46  0.  0.  0.
248  2.47  0.  0.  0.
249  2.48  0.  0.  0.
250  2.49  0.  0.  0.
251  2.50  0.  0.  0.
252  2.51  0.  0.  0.
253  2.52  0.  0.  0.
254  2.53  0.  0.  0.
255  2.54  0.  0.  0.
256  2.55  0.  0.  0.
257  2.56  0.  0.  0.
258  2.57  0.  0.  0.
259  2.58  0.  0.  0.
260  2.59  0.  0.  0.
261  2.60  0.  0.  0.
262  2.61  0.  0.  0.
263  2.62  0.  0.  0.
264  2.63  0.  0.  0.
265  2.64  0.  0.  0.
266  2.65  0.  0.  0.
267  2.66  0.  0.  0.
268  2.67  0.  0.  0.
269  2.68  0.  0.  0.
270  2.69  0.  0.  0.
271  2.70  0.  0.  0.
272  2.71  0.  0.  0.
273  2.72  0.  0.  0.
274  2.73  0.  0.  0.
275  2.74  0.  0.  0.
276  2.75  0.  0.  0.
277  2.76  0.  0.  0.
278  2.77  0.  0.  0.
279  2.78  0.  0.  0.
280  2.79  0.  0.  0.
281  2.80  0.  0.  0.
282  2.81  0.  0.  0.
283  2.82  0.  0.  0.
284  2.83  0.  0.  0.
285  2.84  0.  0.  0.
286  2.85  0.  0.  0.
287  2.86  0.  0.  0.
288  2.87  0.  0.  0.
289  2.88  0.  0.  0.
290  2.89  0.  0.  0.
291  2.90  0.  0.  0.
292  2.91  0.  0.  0.
293  2.92  0.  0.  0.
294  2.93  0.  0.  0.
295  2.94  0.  0.  0.
296  2.95  0.  0.  0.
297  2.96  0.  0.  0.
298  2.97  0.  0.  0.
299  2.98  0.  0.  0.
300  2.99  0.  0.  0.
301  3.00  0.  0.  0.
302  3.01  0.  0.  0.
303  3.02  0.  0.  0.
304  3.03  0.  0.  0.
305  3.04  0.  0.  0.
306  3.05  0.  0.  0.
307  3.06  0.  0.  0.
308  3.07  0.  0.  0.
309  3.08  0.  0.  0.
310  3.09  0.  0.  0.
311  3.10  0.  0.  0.
312  3.11  0.  0.  0.
313  3.12  0.  0.  0.
314  3.13  0.  0.  0.
315  3.14  0.  0.  0.
316  3.15  0.  0.  0.
317  3.16  0.  0.  0.
318  3.17  0.  0.  0.
319  3.18  0.  0.  0.
320  3.19  0.  0.  0.
321  3.20  0.  0.  0.
322  3.21  0.  0.  0.
323  3.22  0.  0.  0.
324  3.23  0.  0.  0.
325  3.24  0.  0.  0.
326  3.25  0.  0.  0.
327  3.26  0.  0.  0.
328  3.27  0.  0.  0.
329  3.28  0.  0.  0.
330  3.29  0.  0.  0.
331  3.30  0.  0.  0.
332  3.31  0.  0.  0.
333  3.32  0.  0.  0.
334  3.33  0.  0.  0.
335  3.34  0.  0.  0.
336  3.35  0.  0.  0.
337  3.36  0.  0.  0.
338  3.37  0.  0.  0.
339  3.38  0.  0.  0.
340  3.39  0.  0.  0.
341  3.40  0.  0.  0.
342  3.41  0.  0.  0.
343  3.42  0.  0.  0.
344  3.43  0.  0.  0.
345  3.44  0.  0.  0.
346  3.45  0.  0.  0.
347  3.46  0.  0.  0.
348  3.47  0.  0.  0.
349  3.48  0.  0.  0.
350  3.49  0.  0.  0.
351  3.50  0.  0.  0.
352  3.51  0.  0.  0.
353  3.52  0.  0.  0.
354  3.53  0.  0.  0.
355  3.54  0.  0.  0.
356  3.55  0.  0.  0.
357  3.56  0.  0.  0.
358  3.57  0.  0.  0.
359  3.58  0.  0.  0.
360  3.59  0.  0.  0.
361  3.60  0.  0.  0.
362  3.61  0.  0.  0.
363  3.62  0.  0.  0.
364  3.63  0.  0.  0.
365  3.64  0.  0.  0.
366  3.65  0.  0.  0.
367  3.66  0.  0.  0.
368  3.67  0.  0.  0.
369  3.68  0.  0.  0.
370  3.69  0.  0.  0.
371  3.70  0.  0.  0.
372  3.71  0.  0.  0.
373  3.72  0.  0.  0.
374  3.73  0.  0.  0.
375  3.74  0.  0.  0.
376  3.75  0.  0.  0.
377  3.76  0.  0.  0.
378  3.77  0.  0.  0.
379  3.78  0.  0.  0.
380  3.79  0.  0.  0.
381  3.80  0.  0.  0.
382  3.81  0.  0.  0.
383  3.82  0.  0.  0.
384  3.83  0.  0.  0.
385  3.84  0.  0.  0.
386  3.85  0.  0.  0.
387  3.86  0.  0.  0.
388  3.87  0.  0.  0.
389  3.88  0.  0.  0.
390  3.89  0.  0.  0.
391  3.90  0.  0.  0.
392  3.91  0.  0.  0.
393  3.92  0.  0.  0.
394  3.93  0.  0.  0.
395  3.94  0.  0.  0.
396  3.95  0.  0.  0.
397  3.96  0.  0.  0.
398  3.97  0.  0.  0.
399  3.98  0.  0.  0.
400  3.99  0.  0.  0.
401  4.00  0.  0.  0.
402  4.01  0.  0.  0.
403  4.02  0.  0.  0.
404  4.03  0.  0.  0.
405  4.04  0.  0.  0.
406  4.05  0.  0.  0.
407  4.06  0.  0.  0.
408  4.07  0.  0.  0.
409  4.08  0.  0.  0.
410  4.09  0.  0.  0.
411  4.10  0.  0.  0.
412  4.11  0.  0.  0.
413  4.12  0.  0.  0.
414  4.13  0.  0.  0.
415  4.14  0.  0.  0.
416  4.15  0.  0.  0.
417  4.16  0.  0.  0.
418  4.17  0.  0.  0.
419  4.18  0.  0.  0.
420  4.19  0.  0.  0.
421  4.20  0.  0.  0.
422  4.21  0.  0.  0.
423  4.22  0.  0.  0.
424  4.23  0.  0.  0.
425  4.24  0.  0.  0.
426  4.25  0.  0.  0.
427  4.26  0.  0.  0.
428  4.27  0.  0.  0.
429  4.28  0.  0.  0.
430  4.29  0.  0.  0.
431  4.30  0.  0.  0.
432  4.31  0.  0.  0.
433  4.32  0.  0.  0.
434  4.33  0.  0.  0.
435  4.34  0.  0.  0.
436  4.35  0.  0.  0.
437  4.36  0.  0.  0.
438  4.37  0.  0.  0.
439  4.38  0.  0.  0.
440  4.39  0.  0.  0.
441  4.40  0.  0.  0.
442  4.41  0.  0.  0.
443  4.42  0.  0.  0.
444  4.43  0.  0.  0.
445  4.44  0.  0.  0.
446  4.45  0.  0.  0.
447  4.46  0.  0.  0.
448  4.47  0.  0.  0.
449  4.48  0.  0.  0.
450  4.49  0.  0.  0.
451  4.50  0.  0.  0.
452  4.51  0.  0.  0.
453  4.52  0.  0.  0.
454  4.53  0.  0.  0.
455  4.54  0.  0.  0.
456  4.55  0.  0.  0.
457  4.56  0.  0.  0.
458  4.57  0.  0.  0.
459  4.58  0.  0.  0.
460  4.59  0.  0.  0.
461  4.60  0.  0.  0.
462  4.61  0.  0.  0.
463  4.62  0.  0.  0.
464  4.63  0.  0.  0.
465  4.64  0.  0.  0.
466  4.65  0.  0.  0.
467  4.66  0.  0.  0.
468  4.67  0.  0.  0.
469  4.68  0.  0.  0.
470  4.69  0.  0.  0.
471  4.70  0.  0.  0.
472  4.71  0.  0.  0.
473  4.72  0.  0.  0.
474  4.73  0.  0.  0.
475  4.74  0.  0.  0.
476  4.75  0.  0.  0.
477  4.76  0.  0.  0.
478  4.77  0.  0.  0.
479  4.78  0.  0.  0.
480  4.79  0.  0.  0.
481  4.80  0.  0.  0.
482  4.81  0.  0.  0.
483  4.82  0.  0.  0.
484  4.83  0.  0.  0.
485  4.84  0.  0.  0.
486  4.85  0.  0.  0.
487  4.86  0.  0.  0.
488  4.87  0.  0.  0.
489  4.88  0.  0.  0.
490  4.89  0.  0.  0.
491  4.90  0.  0.  0.
492  4.91  0.  0.  0.
493  4.92  0.  0.  0.
494  4.93  0.  0.  0.
495  4.94  0.  0.  0.
496  4.95  0.  0.  0.
497  4.96  0.  0.  0.
498  4.97  0.  0.  0.
499  4.98  0.  0.  0.
500  4.99  0.  0.  0.
501  5.00  0.  0.  0.
502  5.01  0.  0.  0.
503  5.02  0.  0.  0.
504  5.03  0.  0.  0.
505  5.04  0.  0.  0.
506  5.05  0.  0.  0.
507  5.06  0.  0.  0.
508  5.07  0.  0.  0.
509  5.08  0.  0.  0.
510  5.09  0.  0.  0.
511  5.10  0.  0.  0.
512  5.11  0.  0.  0.
513  5.12  0.  0.  0.
514  5.13  0.  0.  0.
515  5.14  0.  0.  0.
516  5.15  0.  0.  0.
517  5.16  0.  0.  0.
518  5.17  0.  0.  0.
519  5.18  0.  0.  0.
520  5.19  0.  0.  0.
521  5.20  0.  0.  0.
522  5.21  0.  0.  0.
523  5.22  0.  0.  0.
524  5.23  0.  0.  0.
525  5.24  0.  0.  0.
526  5.25  0.  0.  0.
527  5.26  0.  0.  0.
528  5.27  0.  0.  0.
529  5.28  0.  0.  0.
530  5.29  0.  0.  0.
531  5.30  0.  0.  0.
532  5.31  0.  0.  0.
533  5.32  0.  0.  0.
534  5.33  0.  0.  0.
535  5.34  0.  0.  0.
536  5.35  0.  0.  0.
537  5.36  0.  0.  0.
538  5.37  0.  0.  0.
539  5.38  0.  0.  0.
540  5.39  0.  0.  0.
541  5.40  0.  0.  0.
542  5.41  0.  0.  0.
543  5.42  0.  0.  0.
544  5.43  0.  0.  0.
545  5.44  0.  0.  0.
546  5.45  0.  0.  0.
547  5.46  0.  0.  0.
548  5.47  0.  0.  0.
549  5.48  0.  0.  0.
550  5.49  0.  0.  0.
551  5.50  0.  0.  0.
552  5.51  0.  0.  0.
553  5.52  0.  0.  0.
554  5.53  0.  0.  0.
555  5.54  0.  0.  0.
556  5.55  0.  0.  0.
557  5.56  0.  0.  0.
558  5.57  0.  0.  0.
559  5.58  0.  0.  0.
560  5.59  0.  0.  0.
561  5.60  0.  0.  0.
562  5.61  0.  0.  0.
563  5.62  0.  0.  0.
564  5.63  0.  0.  0.
565  5.64  0.  0.  0.
566  5.65  0.  0.  0.
567  5.66  0.  0.  0.
568  5.67  0.  0.  0.
569  5.68  0.  0.  0.
570  5.69  0.  0.  0.
571  5.70  0.  0.  0.
572  5.71  0.  0.  0.
573  5.72  0.  0.  0.
574  5.73  0.  0.  0.
575  5.74  0.  0.  0.
576  5.75  0.  0.  0.
577  5.76  0.  0.  0.
578  5.77  0.  0.  0.
579  5.78  0.  0.  0.
580  5.79  0.  0.  0.
581  5.80  0.  0.  0.
582  5.81  0.  0.  0.
583  5.82  0.  0.  0.
584  5.83  0.  0.  0.
585  5.84  0.  0.  0.
586  5.85  0.  0.  0.
587  5.86  0.  0.  0.
588  5.87  0.  0.  0.
589  5.88  0.  0.  0.
590  5.89  0.  0.  0.
591  5.90  0.  0.  0.
592  5.91  0.  0.  0.
593  5.92  0.  0.  0.
594  5.93  0.  0.  0.
595  5.94  0.  0.  0.
596  5.95  0.  0.  0.
597  5.96  0.  0.  0.
598  5.97  0.  0.  0.
599  5.98  0.  0.  0.
600  5.99  0.  0.  0.
1                         5.0452220718508E+00  6.2410222840563E-01
1  0.0000000000000E+00  3.8029687385310E-10 -9.7518090824700E-10
2  1.0000000000000E-02  4.1753538307981E-04 -5.5793030090228E-04
3  2.0000000000000E-02  1.6682145144958E-03 -2.2268634324071E-03
4  3.0000000000000E-02  3.7462757834888E-03 -4.9922767344290E-03
5  4.0000000000000E-02  6.6421811076354E-03 -8.8301340885400E-03
6  5.0000000000000E-02  1.0342712114276E-02 -1.3707136541058E-02
7  6.0000000000000E-02  1.4831103358400E-02 -1.9581069495567E-02
8  7.0000000000000E-02  2.0087211158527E-02 -2.6401242839895E-02
9  8.0000000000000E-02  2.6087716251815E-02 -3.4109019397372E-02
10  9.0000000000000E-02  3.2806358107756E-02 -4.2638426163834E-02
11  1.0000000000000E-01  4.0214198400047E-02 -5.1916841919528E-02
12  1.1000000000000E-01  4.8279910822091E-02 -6.1865753997995E-02
13  1.2000000000000E-01  5.6970094146295E-02 -7.2401576260028E-02
14  1.3000000000000E-01  6.6249605173906E-02 -8.3436519667840E-02
15  1.4000000000000E-01  7.6081908003134E-02 -9.4879506289140E-02
16  1.5000000000000E-01  8.6429435861119E-02 -1.0663711708878E-01
17  1.6000000000000E-01  9.7253961601867E-02 -1.1861456349217E-01
18  1.7000000000000E-01  1.0851697286903E-01 -1.3071667243331E-01
19  1.8000000000000E-01  1.2018004786073E-01 -1.4284887443472E-01
20  1.9000000000000E-01  1.3220522761393E-01 -1.5491818420790E-01
21  2.0000000000000E-01  1.4455538074905E-01 -1.6683416331258E-01
22  2.1000000000000E-01  1.5719455668039E-01 -1.7850985457081E-01
23  2.2000000000000E-01  1.7008832340573E-01 -1.8986267819601E-01
24  2.3000000000000E-01  1.8320408613608E-01 -2.0081527996584E-01
25  2.4000000000000E-01  1.9651138321452E-01 -2.1129632223710E-01
26  2.5000000000000E-01  2.0998215599853E-01 -2.2124120916690E-01
27  2.6000000000000E-01  2.2359098964125E-01 -2.3059273816141E-01
28  2.7000000000000E-01  2.3731532200145E-01 -2.3930167031512E-01
29  2.8000000000000E-01  2.5113561823653E-01 -2.4732721342315E-01
30  2.9000000000000E-01  2.6503550898444E-01 -2.5463741203795E-01
31  3.0000000000000E-01  2.7900189041572E-01 -2.6120943999143E-01