<?xml version="1.0" encoding="UTF-8" ?>
<psml version="1.1" energy_unit="hartree" length_unit="bohr"
 uuid="5901b510-c73d-11ed-557f-ecc56dfd739e"
 xmlns="http://esl.cecam.org/PSML/ns/1.1">
<provenance creator="ONCVPSP-4.0.1+psml-4.0.1-76 (scalar-relativistic)"
 date="2023-03-20">
<annotation action="semilocal-pseudopotential-generation"
 action-cont="projectors-generation" />
<input-file name="oncvpsp-input">
<![CDATA[# atsym z nc nv iexc psfile
Po 84 10 5 4 both
# n l f
1 0 2.0
2 0 2.0
2 1 6.0
3 0 2.0
3 1 6.0
3 2 10.0
4 0 2.0
4 1 6.0
4 2 10.0
4 3 14.0
5 0 2.0
5 1 6.0
5 2 10.0
6 0 2.0
6 1 4.0
# lmax
3
# l rc ep ncon nbas qcut
0 1.4 0.0 4 8 9.0
1 1.5 0.0 4 8 8.4
2 1.4 0.0 4 8 9.0
3 1.4 0.05 4 7 3.0
# lloc lpopt rc5 dvloc0
4 5 1.3 0.0
# l nproj debl
0 2 1.0
1 2 1.0
2 2 2.5
3 1 1.0
# icmod fcfact rcfact
3 6.0 1.34
# epsh1 epsh2 depsh
-12.0 12.0 0.02
# rlmax drl
6.0 0.01
 0
]]>
</input-file>
</provenance>
<pseudo-atom-spec atomic-label="Po" atomic-number="84" z-pseudo="24"
 flavor="Hamann&apos;s oncvpsp" relativity="scalar" spin-dft="no"
 core-corrections="yes">
<annotation pseudo-energy="-240.981913520" cutoff_hint_low="35"
 cutoff_hint_normal="38" cutoff_hint_high="40" />
<exchange-correlation>
<annotation oncvpsp-xc-code="4" oncvpsp-xc-type="GGA -- Perdew-Burke-Ernzerhof" />
<libxc-info number-of-functionals="2">
<functional name="Perdew, Burke &amp; Ernzerhof (GGA)" type="exchange" id="101" />
<functional name="Perdew, Burke &amp; Ernzerhof (GGA)" type="correlation"
 id="130" />
</libxc-info>
</exchange-correlation>
<valence-configuration total-valence-charge="24">
<shell n="5" l="s" occupation="2" />
<shell n="5" l="p" occupation="6" />
<shell n="5" l="d" occupation="10" />
<shell n="6" l="s" occupation="2" />
<shell n="6" l="p" occupation="4" />
</valence-configuration>
</pseudo-atom-spec>
<grid npts="797">
<annotation type="sampled from oncvpsp log grid"
 recipe="r(i:1..N) = r1*exp(a*(i-1)) + r=0; resampled"
 recipe-cont="r1: scale; a: step" scale="0.595238095238E-05"
 step="0.598207167755E-02" delta="0.500000000000E-02" rmax="44.5602586620" />
<grid-data>
  0.000000000000E+00  5.012068627186E-03  1.003189025273E-02  1.506764784016E-02
  2.007929849502E-02  2.520413535525E-02  3.033955493174E-02  3.544514067320E-02
  4.067337968474E-02  4.584266694799E-02  5.105444132841E-02  5.618252060417E-02
  6.145693971884E-02  6.682556827341E-02  7.222979960815E-02  7.760544232871E-02
  8.288385962696E-02  8.799333412771E-02  9.341778828544E-02  9.858512862547E-02
  1.040382968221E-01  1.091382736037E-01  1.144882522018E-01  1.201004877519E-01
  1.252364176334E-01  1.305919783942E-01  1.361765622428E-01  1.419999630321E-01
  1.471892578883E-01  1.525681920974E-01  1.581436959042E-01  1.639229528150E-01
  1.699134088524E-01  1.750723480605E-01  1.803879238397E-01  1.858648920157E-01
  1.915081528113E-01  1.973227552307E-01  2.033139015769E-01  2.094869521058E-01
  2.145600694062E-01  2.197560417049E-01  2.250778441649E-01  2.305285239981E-01
  2.361112022107E-01  2.418290753895E-01  2.476854175329E-01  2.536835819251E-01
  2.598270030563E-01  2.661191985896E-01  2.725637713745E-01  2.791644115105E-01
  2.842195809736E-01  2.893662905373E-01  2.946061978295E-01  2.999409904947E-01
  3.053723867379E-01  3.109021358774E-01  3.165320189087E-01  3.222638490780E-01
  3.280994724661E-01  3.340407685830E-01  3.400896509733E-01  3.462480678325E-01
  3.525180026344E-01  3.589014747700E-01  3.654005401978E-01  3.720172921062E-01
  3.787538615874E-01  3.856124183239E-01  3.925951712872E-01  3.997043694494E-01
  4.069423025076E-01  4.143113016209E-01  4.218137401619E-01  4.268906903385E-01
  4.320287466874E-01  4.372286446825E-01  4.424911286499E-01  4.478169518743E-01
  4.532068767071E-01  4.586616746752E-01  4.641821265915E-01  4.697690226672E-01
  4.754231626240E-01  4.811453558094E-01  4.869364213119E-01  4.927971880788E-01
  4.987284950345E-01  5.047311912008E-01  5.108061358180E-01  5.169541984687E-01
  5.231762592015E-01  5.294732086573E-01  5.358459481967E-01  5.422953900292E-01
  5.488224573436E-01  5.554280844401E-01  5.621132168645E-01  5.688788115426E-01
  5.757258369184E-01  5.826552730915E-01  5.896681119584E-01  5.967653573540E-01
  6.039480251951E-01  6.112171436263E-01  6.185737531670E-01  6.260189068601E-01
  6.335536704231E-01  6.411791224003E-01  6.488963543175E-01  6.567064708381E-01
  6.646105899211E-01  6.726098429814E-01  6.807053750515E-01  6.888983449456E-01
  6.971899254254E-01  7.055813033678E-01  7.140736799352E-01  7.226682707469E-01
  7.313663060536E-01  7.401690309132E-01  7.490777053693E-01  7.580936046311E-01
  7.672180192565E-01  7.764522553362E-01  7.857976346815E-01  7.952554950125E-01
  8.048271901505E-01  8.145140902111E-01  8.243175818009E-01  8.342390682155E-01
  8.392445026247E-01  8.442799696405E-01  8.493456494583E-01  8.544417233551E-01
  8.595683736952E-01  8.647257839374E-01  8.699141386410E-01  8.751336234729E-01
  8.803844252137E-01  8.856667317650E-01  8.909807321556E-01  8.963266165485E-01
  9.017045762478E-01  9.071148037053E-01  9.125574925275E-01  9.180328374827E-01
  9.235410345076E-01  9.290822807146E-01  9.346567743989E-01  9.402647150453E-01
  9.459063033356E-01  9.515817411556E-01  9.572912316025E-01  9.630349789921E-01
  9.688131888661E-01  9.746260679993E-01  9.804738244073E-01  9.863566673537E-01
  9.922748073578E-01  9.982284562020E-01  1.004217826939E+00  1.010243133901E+00
  1.016304592704E+00  1.022402420260E+00  1.028536834782E+00  1.034708055791E+00
  1.040916304125E+00  1.047161801950E+00  1.053444772762E+00  1.059765441398E+00
  1.066124034047E+00  1.072520778251E+00  1.078955902921E+00  1.085429638338E+00
  1.091942216168E+00  1.098493869465E+00  1.105084832682E+00  1.111715341678E+00
  1.118385633728E+00  1.125095947531E+00  1.131846523216E+00  1.138637602355E+00
  1.145469427969E+00  1.152342244537E+00  1.159256298004E+00  1.166211835792E+00
  1.173209106807E+00  1.180248361448E+00  1.187329851617E+00  1.194453830726E+00
  1.201620553711E+00  1.208830277033E+00  1.216083258695E+00  1.223379758247E+00
  1.230720036797E+00  1.238104357017E+00  1.245532983160E+00  1.253006181059E+00
  1.260524218145E+00  1.268087363454E+00  1.275695887634E+00  1.283350062960E+00
  1.291050163338E+00  1.298796464318E+00  1.306589243104E+00  1.314428778563E+00
  1.322315351234E+00  1.330249243341E+00  1.338230738801E+00  1.346260123234E+00
  1.354337683974E+00  1.362463710077E+00  1.370638492338E+00  1.378862323292E+00
  1.387135497232E+00  1.395458310215E+00  1.403831060076E+00  1.412254046437E+00
  1.420727570715E+00  1.429251936140E+00  1.437827447757E+00  1.446454412443E+00
  1.455133138918E+00  1.463863937751E+00  1.472647121378E+00  1.481483004106E+00
  1.490371902131E+00  1.499314133544E+00  1.508310018345E+00  1.517359878455E+00
  1.526464037726E+00  1.535622821952E+00  1.544836558884E+00  1.554105578237E+00
  1.563430211706E+00  1.572810792977E+00  1.582247657734E+00  1.591741143681E+00
  1.601291590543E+00  1.610899340086E+00  1.620564736127E+00  1.630288124543E+00
  1.640069853291E+00  1.649910272411E+00  1.659809734045E+00  1.669768592449E+00
  1.679787204004E+00  1.689865927228E+00  1.700005122791E+00  1.710205153528E+00
  1.720466384449E+00  1.730789182756E+00  1.741173917852E+00  1.751620961360E+00
  1.762130687128E+00  1.772703471251E+00  1.783339692078E+00  1.794039730230E+00
  1.804803968612E+00  1.815632792424E+00  1.826526589178E+00  1.837485748713E+00
  1.848510663205E+00  1.859601727185E+00  1.870759337548E+00  1.881983893573E+00
  1.893275796934E+00  1.904635451716E+00  1.916063264426E+00  1.927559644013E+00
  1.939125001877E+00  1.950759751888E+00  1.962464310400E+00  1.974239096262E+00
  1.986084530840E+00  1.998001038025E+00  2.009989044253E+00  2.022048978518E+00
  2.034181272389E+00  2.046386360024E+00  2.058664678184E+00  2.071016666253E+00
  2.083442766250E+00  2.095943422848E+00  2.108519083385E+00  2.121170197885E+00
  2.133897219073E+00  2.146700602387E+00  2.159580806001E+00  2.172538290837E+00
  2.185573520583E+00  2.198686961706E+00  2.211879083476E+00  2.225150357977E+00
  2.238501260125E+00  2.251932267686E+00  2.265443861292E+00  2.279036524460E+00
  2.292710743606E+00  2.306467008068E+00  2.320305810116E+00  2.334227644977E+00
  2.348233010847E+00  2.362322408912E+00  2.376496343365E+00  2.390755321426E+00
  2.405099853354E+00  2.419530452474E+00  2.434047635189E+00  2.448651921000E+00
  2.463343832526E+00  2.478123895522E+00  2.492992638895E+00  2.507950594728E+00
  2.522998298296E+00  2.538136288086E+00  2.553365105815E+00  2.568685296450E+00
  2.584097408228E+00  2.599601992678E+00  2.615199604634E+00  2.630890802261E+00
  2.646676147075E+00  2.662556203958E+00  2.678531541181E+00  2.694602730428E+00
  2.710770346811E+00  2.727034968892E+00  2.743397178705E+00  2.759857561777E+00
  2.776416707148E+00  2.793075207391E+00  2.809833658635E+00  2.826692660587E+00
  2.843652816551E+00  2.860714733450E+00  2.877879021851E+00  2.895146295982E+00
  2.912517173758E+00  2.929992276800E+00  2.947572230461E+00  2.965257663844E+00
  2.983049209827E+00  3.000947505086E+00  3.018953190116E+00  3.037066909257E+00
  3.055289310712E+00  3.073621046577E+00  3.092062772856E+00  3.110615149493E+00
  3.129278840390E+00  3.148054513433E+00  3.166942840513E+00  3.185944497556E+00
  3.205060164542E+00  3.224290525529E+00  3.243636268682E+00  3.263098086294E+00
  3.282676674812E+00  3.302372734861E+00  3.322186971270E+00  3.342120093098E+00
  3.362172813656E+00  3.382345850538E+00  3.402639925641E+00  3.423055765195E+00
  3.443594099786E+00  3.464255664385E+00  3.485041198371E+00  3.505951445562E+00
  3.526987154235E+00  3.548149077160E+00  3.569437971623E+00  3.590854599453E+00
  3.612399727050E+00  3.634074125412E+00  3.655878570165E+00  3.677813841586E+00
  3.699880724635E+00  3.722080008983E+00  3.744412489037E+00  3.766878963971E+00
  3.789480237755E+00  3.812217119181E+00  3.835090421896E+00  3.858100964428E+00
  3.881249570214E+00  3.904537067636E+00  3.927964290042E+00  3.951532075782E+00
  3.975241268236E+00  3.999092715846E+00  4.023087272141E+00  4.047225795774E+00
  4.071509150548E+00  4.095938205452E+00  4.120513834684E+00  4.145236917693E+00
  4.170108339199E+00  4.195128989234E+00  4.220299763169E+00  4.245621561748E+00
  4.271095291119E+00  4.296721862866E+00  4.322502194043E+00  4.348437207207E+00
  4.374527830450E+00  4.400774997433E+00  4.427179647418E+00  4.453742725302E+00
  4.480465181654E+00  4.507347972744E+00  4.534392060580E+00  4.561598412944E+00
  4.588968003421E+00  4.616501811442E+00  4.644200822311E+00  4.672066027244E+00
  4.700098423408E+00  4.728299013948E+00  4.756668808032E+00  4.785208820880E+00
  4.813920073805E+00  4.842803594248E+00  4.871860415814E+00  4.901091578309E+00
  4.930498127779E+00  4.960081116545E+00  4.989841603244E+00  5.019780652864E+00
  5.049899336781E+00  5.080198732802E+00  5.110679925199E+00  5.141344004750E+00
  5.172192068778E+00  5.203225221191E+00  5.234444572518E+00  5.265851239953E+00
  5.297446347393E+00  5.329231025477E+00  5.361206411630E+00  5.393373650100E+00
  5.425733892001E+00  5.458288295353E+00  5.491038025125E+00  5.523984253275E+00
  5.557128158795E+00  5.590470927748E+00  5.624013753314E+00  5.657757835834E+00
  5.691704382849E+00  5.725854609146E+00  5.760209736801E+00  5.794770995222E+00
  5.829539621193E+00  5.864516858920E+00  5.899703960074E+00  5.935102183834E+00
  5.970712796937E+00  6.006537073719E+00  6.042576296161E+00  6.078831753938E+00
  6.115304744462E+00  6.151996572929E+00  6.188908552366E+00  6.226042003681E+00
  6.263398255703E+00  6.300978645237E+00  6.338784517108E+00  6.376817224211E+00
  6.415078127556E+00  6.453568596322E+00  6.492290007899E+00  6.531243747947E+00
  6.570431210435E+00  6.609853797697E+00  6.649512920483E+00  6.689409998006E+00
  6.729546457994E+00  6.769923736742E+00  6.810543279163E+00  6.851406538838E+00
  6.892514978071E+00  6.933870067939E+00  6.975473288347E+00  7.017326128077E+00
  7.059430084845E+00  7.101786665354E+00  7.144397385346E+00  7.187263769659E+00
  7.230387352277E+00  7.273769676390E+00  7.317412294449E+00  7.361316768215E+00
  7.405484668824E+00  7.449917576837E+00  7.494617082298E+00  7.539584784792E+00
  7.584822293501E+00  7.630331227262E+00  7.676113214626E+00  7.722169893913E+00
  7.768502913277E+00  7.815113930756E+00  7.862004614341E+00  7.909176642027E+00
  7.956631701879E+00  8.004371492090E+00  8.052397721043E+00  8.100712107369E+00
  8.149316380014E+00  8.198212278294E+00  8.247401551963E+00  8.296885961275E+00
  8.346667277043E+00  8.396747280705E+00  8.447127764389E+00  8.497810530976E+00
  8.548797394161E+00  8.600090178526E+00  8.651690719598E+00  8.703600863915E+00
  8.755822469099E+00  8.808357403913E+00  8.861207548337E+00  8.914374793627E+00
  8.967861042389E+00  9.021668208643E+00  9.075798217895E+00  9.130253007202E+00
  9.185034525245E+00  9.240144732397E+00  9.295585600791E+00  9.351359114396E+00
  9.407467269082E+00  9.463912072697E+00  9.520695545133E+00  9.577819718404E+00
  9.635286636714E+00  9.693098356534E+00  9.751256946674E+00  9.809764488354E+00
  9.868623075284E+00  9.927834813736E+00  9.987401822618E+00  1.004732623355E+01
  1.010761019095E+01  1.016825585210E+01  1.022926538721E+01  1.029064097954E+01
  1.035238482541E+01  1.041449913437E+01  1.047698612917E+01  1.053984804595E+01
  1.060308713422E+01  1.066670565703E+01  1.073070589097E+01  1.079509012632E+01
  1.085986066707E+01  1.092501983108E+01  1.099056995006E+01  1.105651336976E+01
  1.112285244998E+01  1.118958956468E+01  1.125672710207E+01  1.132426746468E+01
  1.139221306947E+01  1.146056634789E+01  1.152932974597E+01  1.159850572445E+01
  1.166809675880E+01  1.173810533935E+01  1.180853397139E+01  1.187938517521E+01
  1.195066148627E+01  1.202236545518E+01  1.209449964791E+01  1.216706664580E+01
  1.224006904568E+01  1.231350945995E+01  1.238739051671E+01  1.246171485981E+01
  1.253648514897E+01  1.261170405986E+01  1.268737428422E+01  1.276349852993E+01
  1.284007952111E+01  1.291711999823E+01  1.299462271822E+01  1.307259045453E+01
  1.315102599726E+01  1.322993215324E+01  1.330931174616E+01  1.338916761664E+01
  1.346950262234E+01  1.355031963807E+01  1.363162155590E+01  1.371341128524E+01
  1.379569175295E+01  1.387846590347E+01  1.396173669889E+01  1.404550711908E+01
  1.412978016180E+01  1.421455884277E+01  1.429984619582E+01  1.438564527300E+01
  1.447195914464E+01  1.455879089950E+01  1.464614364490E+01  1.473402050677E+01
  1.482242462981E+01  1.491135917759E+01  1.500082733266E+01  1.509083229665E+01
  1.518137729043E+01  1.527246555417E+01  1.536410034750E+01  1.545628494958E+01
  1.554902265928E+01  1.564231679524E+01  1.573617069601E+01  1.583058772018E+01
  1.592557124651E+01  1.602112467398E+01  1.611725142203E+01  1.621395493056E+01
  1.631123866014E+01  1.640910609211E+01  1.650756072866E+01  1.660660609303E+01
  1.670624572959E+01  1.680648320397E+01  1.690732210319E+01  1.700876603581E+01
  1.711081863202E+01  1.721348354382E+01  1.731676444508E+01  1.742066503175E+01
  1.752518902194E+01  1.763034015607E+01  1.773612219701E+01  1.784253893019E+01
  1.794959416377E+01  1.805729172875E+01  1.816563547913E+01  1.827462929200E+01
  1.838427706775E+01  1.849458273016E+01  1.860555022654E+01  1.871718352790E+01
  1.882948662907E+01  1.894246354884E+01  1.905611833013E+01  1.917045504011E+01
  1.928547777036E+01  1.940119063698E+01  1.951759778080E+01  1.963470336748E+01
  1.975251158769E+01  1.987102665722E+01  1.999025281716E+01  2.011019433406E+01
  2.023085550007E+01  2.035224063307E+01  2.047435407686E+01  2.059720020133E+01
  2.072078340253E+01  2.084510810295E+01  2.097017875157E+01  2.109599982408E+01
  2.122257582302E+01  2.134991127796E+01  2.147801074563E+01  2.160687881010E+01
  2.173652008296E+01  2.186693920346E+01  2.199814083868E+01  2.213012968371E+01
  2.226291046181E+01  2.239648792458E+01  2.253086685213E+01  2.266605205324E+01
  2.280204836556E+01  2.293886065576E+01  2.307649381969E+01  2.321495278261E+01
  2.335424249931E+01  2.349436795430E+01  2.363533416203E+01  2.377714616700E+01
  2.391980904400E+01  2.406332789827E+01  2.420770786566E+01  2.435295411285E+01
  2.449907183753E+01  2.464606626855E+01  2.479394266616E+01  2.494270632216E+01
  2.509236256009E+01  2.524291673545E+01  2.539437423587E+01  2.554674048128E+01
  2.570002092417E+01  2.585422104971E+01  2.600934637601E+01  2.616540245427E+01
  2.632239486899E+01  2.648032923821E+01  2.663921121364E+01  2.679904648092E+01
  2.695984075980E+01  2.712159980436E+01  2.728432940319E+01  2.744803537961E+01
  2.761272359189E+01  2.777839993344E+01  2.794507033304E+01  2.811274075504E+01
  2.828141719957E+01  2.845110570276E+01  2.862181233698E+01  2.879354321100E+01
  2.896630447027E+01  2.914010229709E+01  2.931494291087E+01  2.949083256834E+01
  2.966777756375E+01  2.984578422913E+01  3.002485893451E+01  3.020500808811E+01
  3.038623813664E+01  3.056855556546E+01  3.075196689885E+01  3.093647870025E+01
  3.112209757245E+01  3.130883015788E+01  3.149668313883E+01  3.168566323766E+01
  3.187577721709E+01  3.206703188039E+01  3.225943407167E+01  3.245299067610E+01
  3.264770862016E+01  3.284359487188E+01  3.304065644111E+01  3.323890037976E+01
  3.343833378204E+01  3.363896378473E+01  3.384079756744E+01  3.404384235284E+01
  3.424810540696E+01  3.445359403940E+01  3.466031560364E+01  3.486827749726E+01
  3.507748716224E+01  3.528795208522E+01  3.549967979773E+01  3.571267787652E+01
  3.592695394377E+01  3.614251566744E+01  3.635937076144E+01  3.657752698601E+01
  3.679699214793E+01  3.701777410081E+01  3.723988074542E+01  3.746332002989E+01
  3.768809995007E+01  3.791422854977E+01  3.814171392107E+01  3.837056420460E+01
  3.860078758982E+01  3.883239231536E+01  3.906538666925E+01  3.929977898927E+01
  3.953557766321E+01  3.977279112919E+01  4.001142787596E+01  4.025149644322E+01
  4.049300542188E+01  4.073596345441E+01  4.098037923513E+01  4.122626151054E+01
  4.147361907961E+01  4.172246079408E+01  4.197279555885E+01  4.222463233220E+01
  4.247798012620E+01  4.273284800695E+01  4.298924509499E+01  4.324718056556E+01
  4.350666364896E+01  4.376770363085E+01  4.403030985264E+01  4.429449171175E+01
  4.456025866202E+01
</grid-data>
</grid>
<valence-charge total-charge="24" is-unscreening-charge="yes"
 rescaled-to-z-pseudo="no">
<radfunc>
<data npts="797">
  7.802249534599E+00  7.806097752626E+00  7.817664855967E+00  7.837020230154E+00
  7.863984252024E+00  7.899492279870E+00  7.943108924430E+00  7.994429600731E+00
  8.055185559624E+00  8.123393135490E+00  8.200325037700E+00  8.283992813800E+00
  8.378262552907E+00  8.482730860455E+00  8.596522652877E+00  8.718253837367E+00
  8.846020760478E+00  8.977421318311E+00  9.125176728926E+00  9.273774227849E+00
  9.438822976772E+00  9.600763422465E+00  9.778441732360E+00  9.973323277157E+00
  1.015920112073E+01  1.036060664979E+01  1.057876129125E+01  1.081496711458E+01
  1.103284384488E+01  1.126591949614E+01  1.151516020579E+01  1.178157685236E+01
  1.206622387125E+01  1.231814520525E+01  1.258414176993E+01  1.286488533906E+01
  1.316106247614E+01  1.347337183568E+01  1.380252082243E+01  1.414922151160E+01
  1.443969778480E+01  1.474222475456E+01  1.505715960689E+01  1.538485221979E+01
  1.572564224671E+01  1.607985581633E+01  1.644780181268E+01  1.682976769798E+01
  1.722601483910E+01  1.763677329751E+01  1.806223604202E+01  1.850255254397E+01
  1.884259931582E+01  1.919107874287E+01  1.954799098398E+01  1.991331364777E+01
  2.028699953073E+01  2.066897421566E+01  2.105913352872E+01  2.145734085456E+01
  2.186342431055E+01  2.227717378257E+01  2.269833782675E+01  2.312662044391E+01
  2.356167773556E+01  2.400311445369E+01  2.445048045925E+01  2.490326710817E+01
  2.536090358755E+01  2.582275322913E+01  2.628810983193E+01  2.675619403098E+01
  2.722614975499E+01  2.769704082150E+01  2.816784772442E+01  2.848112980000E+01
  2.879353533995E+01  2.910469696871E+01  2.941422916800E+01  2.972172805556E+01
  3.002677121367E+01  3.032891757317E+01  3.062770735859E+01  3.092266210058E+01
  3.121328472173E+01  3.149905970225E+01  3.177945333208E+01  3.205391405614E+01
  3.232187291945E+01  3.258274411906E+01  3.283592566943E+01  3.308080018825E+01
  3.331673580908E+01  3.354308722739E+01  3.375919688611E+01  3.396439630644E+01
  3.415800756920E+01  3.433934495167E+01  3.450771672386E+01  3.466242710753E+01
  3.480277840067E+01  3.492807326857E+01  3.503761720205E+01  3.513072114172E+01
  3.520670426614E+01  3.526489693971E+01  3.530464381511E+01  3.532530708263E+01
  3.532626985750E+01  3.530693969360E+01  3.526675221047E+01  3.520517481776E+01
  3.512171051930E+01  3.501590177631E+01  3.488733440726E+01  3.473564149877E+01
  3.456050730043E+01  3.436167107309E+01  3.413893085863E+01  3.389214713659E+01
  3.362124633123E+01  3.332622413072E+01  3.300714857864E+01  3.266416289681E+01
  3.229748799750E+01  3.190742464282E+01  3.149435520902E+01  3.105874501424E+01
  3.060114316918E+01  3.012218291248E+01  2.962258139475E+01  2.910313887881E+01
  2.883624972014E+01  2.856473732783E+01  2.828872437704E+01  2.800833835764E+01
  2.772371147423E+01  2.743498053576E+01  2.714228683468E+01  2.684577601559E+01
  2.654559793357E+01  2.624190650203E+01  2.593485953052E+01  2.562461855234E+01
  2.531134864235E+01  2.499521822511E+01  2.467639887363E+01  2.435506509902E+01
  2.403139413148E+01  2.370556569283E+01  2.337776176118E+01  2.304816632807E+01
  2.271696514865E+01  2.238434548544E+01  2.205049584614E+01  2.171560571622E+01
  2.137986528690E+01  2.104346517909E+01  2.070659616410E+01  2.036944888186E+01
  2.003221355729E+01  1.969507971568E+01  1.935823589785E+01  1.902186937593E+01
  1.868616587047E+01  1.835130926989E+01  1.801748135289E+01  1.768486151485E+01
  1.735362649890E+01  1.702395013255E+01  1.669600307066E+01  1.636995254561E+01
  1.604596212524E+01  1.572419147958E+01  1.540479615682E+01  1.508792736932E+01
  1.477373179034E+01  1.446235136185E+01  1.415392311429E+01  1.384857899842E+01
  1.354644572999E+01  1.324764464734E+01  1.295229158249E+01  1.266049674579E+01
  1.237236462433E+01  1.208799389435E+01  1.180747734758E+01  1.153090183156E+01
  1.125834820382E+01  1.098989129983E+01  1.072559991448E+01  1.046553679679E+01
  1.020975865767E+01  9.958316190147E+00  9.711254101811E+00  9.468611158944E+00
  9.230420241799E+00  8.996708410543E+00  8.767496981246E+00  8.542801611364E+00
  8.322632394086E+00  8.106993960930E+00  7.895885591994E+00  7.689301333225E+00
  7.487230120125E+00  7.289655907303E+00  7.096557803321E+00  6.907910210310E+00
  6.723682967877E+00  6.543841500901E+00  6.368346970889E+00  6.197156430449E+00
  6.030222980475E+00  5.867495930029E+00  5.708920959066E+00  5.554440283629E+00
  5.403992823332E+00  5.257514371067E+00  5.114937764871E+00  4.976193151951E+00
  4.841208624484E+00  4.709911055459E+00  4.582226343989E+00  4.458079471765E+00
  4.337394688862E+00  4.220095652026E+00  4.106105564077E+00  3.995347309432E+00
  3.887743586436E+00  3.783217036690E+00  3.681690371648E+00  3.583086537532E+00
  3.487329038195E+00  3.394342339832E+00  3.304051923911E+00  3.216384341630E+00
  3.131267260474E+00  3.048629506314E+00  2.968401101268E+00  2.890513297450E+00
  2.814898606783E+00  2.741490827027E+00  2.670225064195E+00  2.601037751504E+00
  2.533866665017E+00  2.468650936143E+00  2.405331061143E+00  2.343848907786E+00
  2.284147719321E+00  2.226172115888E+00  2.169868093532E+00  2.115183020951E+00
  2.062065634115E+00  2.010466028881E+00  1.960335651756E+00  1.911627288903E+00
  1.864295053544E+00  1.818294371850E+00  1.773581967450E+00  1.730115844664E+00
  1.687855270565E+00  1.646760755976E+00  1.606794035494E+00  1.567918046648E+00
  1.530096908265E+00  1.493295898149E+00  1.457481430141E+00  1.422621030648E+00
  1.388683314718E+00  1.355637961728E+00  1.323455690753E+00  1.292108235692E+00
  1.261568320198E+00  1.231809632486E+00  1.202806800055E+00  1.174535364402E+00
  1.146971755753E+00  1.120093267869E+00  1.093878032971E+00  1.068304996822E+00
  1.043353893999E+00  1.019005223397E+00  9.952402240012E-01  9.720408509385E-01
  9.493897518594E-01  9.272702436585E-01  9.056662895645E-01  8.845624766179E-01
  8.639439935551E-01  8.437966091165E-01  8.241066507926E-01  8.048609840203E-01
  7.860469918430E-01  7.676525550410E-01  7.496660327419E-01  7.320762435178E-01
  7.148724469722E-01  6.980443258225E-01  6.815819684793E-01  6.654758521241E-01
  6.497168262844E-01  6.342960969075E-01  6.192052109285E-01  6.044360413315E-01
  5.899807726989E-01  5.758318872456E-01  5.619821513319E-01  5.484246024498E-01
  5.351525366756E-01  5.221594965827E-01  5.094392596063E-01  4.969858268520E-01
  4.847934123409E-01  4.728564326811E-01  4.611694971578E-01  4.497273982313E-01
  4.385251024353E-01  4.275577416641E-01  4.168206048475E-01  4.063091299613E-01
  3.960188964494E-01  3.859456179599E-01  3.760851354289E-01  3.664334104933E-01
  3.569865192216E-01  3.477406461540E-01  3.386920786393E-01  3.298372014609E-01
  3.211724917402E-01  3.126945141085E-01  3.043999161370E-01  2.962854240153E-01
  2.883478384694E-01  2.805840309093E-01  2.729909397970E-01  2.655655672262E-01
  2.583049757048E-01  2.512062851311E-01  2.442666699555E-01  2.374833565203E-01
  2.308536205672E-01  2.243747849075E-01  2.180442172456E-01  2.118593281480E-01
  2.058175691525E-01  1.999164310086E-01  1.941534420433E-01  1.885261666458E-01
  1.830322038641E-01  1.776691861084E-01  1.724347779538E-01  1.673266750385E-01
  1.623426030505E-01  1.574803167981E-01  1.527375993591E-01  1.481122613045E-01
  1.436021399900E-01  1.392050989134E-01  1.349190271319E-01  1.307418387360E-01
  1.266714723755E-01  1.227058908342E-01  1.188430806508E-01  1.150810517803E-01
  1.114178372950E-01  1.078514931207E-01  1.043800978061E-01  1.010017523348E-01
  9.771457991338E-02  9.451672586271E-02  9.140635747934E-02  8.838166393124E-02
  8.544085617197E-02  8.258216687181E-02  7.980385036375E-02  7.710418260295E-02
  7.448146113792E-02  7.193400509195E-02  6.946015515356E-02  6.705827357445E-02
  6.472674417388E-02  6.246397234833E-02  6.026838508532E-02  5.813843098036E-02
  5.607258025617E-02  5.406932478319E-02  5.212717810065E-02  5.024467543723E-02
  4.842037373079E-02  4.665285164625E-02  4.494070959116E-02  4.328256972816E-02
  4.167707598381E-02  4.012289405332E-02  3.861871140046E-02  3.716323725232E-02
  3.575520258842E-02  3.439336012367E-02  3.307648428482E-02  3.180337118004E-02
  3.057283856127E-02  2.938372577897E-02  2.823489372907E-02  2.712522479173E-02
  2.605362276188E-02  2.501901277109E-02  2.402034120083E-02  2.305657558678E-02
  2.212670451427E-02  2.122973750466E-02  2.036470489258E-02  1.953065769414E-02
  1.872666746607E-02  1.795182615574E-02  1.720524594237E-02  1.648605906924E-02
  1.579341766736E-02  1.512649357044E-02  1.448447812162E-02  1.386658197205E-02
  1.327203487154E-02  1.270008545166E-02  1.215000100141E-02  1.162106723595E-02
  1.111258805859E-02  1.062388531638E-02  1.015429854975E-02  9.703184736473E-03
  9.269918030385E-03  8.853889495209E-03  8.454506833921E-03  8.071194114027E-03
  7.703391489167E-03  7.350554917461E-03  7.012155876984E-03  6.687681078794E-03
  6.376632177908E-03  6.078525482625E-03  5.792891662588E-03  5.519275455984E-03
  5.257235376235E-03  5.006343418582E-03  4.766184766891E-03  4.536357501052E-03
  4.316472305293E-03  4.106152177742E-03  3.905032141547E-03  3.712758957840E-03
  3.528990840842E-03  3.353397175371E-03  3.185658237005E-03  3.025464915137E-03
  2.872518439145E-03  2.726530107888E-03  2.587221022715E-03  2.454321824158E-03
  2.327572432480E-03  2.206721792216E-03  2.091527620837E-03  1.981756161655E-03
  1.877181941066E-03  1.777587530229E-03  1.682763311231E-03  1.592507247826E-03
  1.506624660778E-03  1.424928007842E-03  1.347236668424E-03  1.273376732910E-03
  1.203180796686E-03  1.136487758828E-03  1.073142625459E-03  1.012996317736E-03
  9.559054844404E-04  9.017323191343E-04  8.503443818344E-04  8.016144251516E-04
  7.554202248414E-04  7.116444147024E-04  6.701743257584E-04  6.309018296557E-04
  5.937231862040E-04  5.585388949871E-04  5.252535509688E-04  4.937757040156E-04
  4.640177222601E-04  4.358956592266E-04  4.093291246386E-04  3.842411588326E-04
  3.605581106984E-04  3.382095190688E-04  3.171279974832E-04  2.972491222491E-04
  2.785113237270E-04  2.608557807672E-04  2.442263182255E-04  2.285693074894E-04
  2.138335699457E-04  1.999702833227E-04  1.869328908425E-04  1.746770131191E-04
  1.631603627405E-04  1.523426614750E-04  1.421855600412E-04  1.326525603854E-04
  1.237089404094E-04  1.153216810938E-04  1.074593959629E-04  1.000922628394E-04
  9.319195783528E-05  8.673159153064E-05  8.068564728901E-05  7.502992166113E-05
  6.974146682895E-05  6.479853504243E-05  6.018052500258E-05  5.586793014475E-05
  5.184228877652E-05  4.808613602554E-05  4.458295755265E-05  4.131714498651E-05
  3.827395303613E-05  3.543945823836E-05  3.280051929748E-05  3.034473897491E-05
  2.806042748692E-05  2.593656736905E-05  2.396277976623E-05  2.212929210768E-05
  2.042690712676E-05  1.884697318558E-05  1.738135586525E-05  1.602241078278E-05
  1.476295759611E-05  1.359625515952E-05  1.251597779172E-05  1.151619261993E-05
  1.059133796348E-05  9.736202721135E-06  8.945906726983E-06  8.215882040276E-06
  7.541855135241E-06  6.919829957564E-06  6.346071814873E-06  5.817092069249E-06
  5.329633600478E-06  4.880657009459E-06  4.467327531915E-06  4.087002633273E-06
  3.737220256312E-06  3.415687693950E-06  3.120271060241E-06  2.848985333477E-06
  2.599984945981E-06  2.371554895978E-06  2.162102357685E-06  1.970148766496E-06
  1.794322356910E-06  1.633351131608E-06  1.486056240796E-06  1.351345751695E-06
  1.228208788788E-06  1.115710026116E-06  1.012984513676E-06  9.192328206241E-07
  8.337164786935E-07  7.557537099126E-07  6.847154233443E-07  6.200214662310E-07
  5.611371155481E-07  5.075697965814E-07  4.588660157434E-07  4.146084954209E-07