Po    ONCVPSP-4.0.1  r_core=   1.40383   1.50831   1.40383   1.40383
84.0000     24.0000      220131    zatom,zion,pspd
8      11   3     4   600     0    pspcod,pspxc,lmax,lloc,mmax,r2well
5.99000000  6.00000000  0.00000000    rchrg fchrg qchrg
2     2     2     1     0    nproj
1     1           extension_switch
0                         1.6289353975992E+01  2.2793998289045E+00
1  0.0000000000000E+00  3.9140738428145E-09 -8.8417419635833E-09
2  1.0000000000000E-02  8.0347362342646E-02 -4.0501745303700E-03
3  2.0000000000000E-02  1.6057352929837E-01 -8.1792705827811E-03
4  3.0000000000000E-02  2.4055571365511E-01 -1.2461911471470E-02
5  4.0000000000000E-02  3.2016799106988E-01 -1.6964229491357E-02
6  5.0000000000000E-02  3.9927984676905E-01 -2.1739881564915E-02
7  6.0000000000000E-02  4.7775485769724E-01 -2.6826371791148E-02
8  7.0000000000000E-02  5.5544955054689E-01 -3.2241772537337E-02
9  8.0000000000000E-02  6.3221247218603E-01 -3.7981926872419E-02
10  9.0000000000000E-02  7.0788350426857E-01 -4.4018204450922E-02
11  1.0000000000000E-01  7.8229344835920E-01 -5.0295870648036E-02
12  1.1000000000000E-01  8.5526390185146E-01 -5.6733115085608E-02
13  1.2000000000000E-01  9.2660743843142E-01 -6.3220770969795E-02
14  1.3000000000000E-01  9.9612809998129E-01 -6.9622741202656E-02
15  1.4000000000000E-01  1.0636221997739E+00 -7.5777131366812E-02
16  1.5000000000000E-01  1.1288794297326E+00 -8.1498073758615E-02
17  1.6000000000000E-01  1.1916842575736E+00 -8.6578211008573E-02
18  1.7000000000000E-01  1.2518175929602E+00 -9.0791792818607E-02
19  1.8000000000000E-01  1.3090586955265E+00 -9.3898325294367E-02
20  1.9000000000000E-01  1.3631872919058E+00 -9.5646699566197E-02
21  2.0000000000000E-01  1.4139858638578E+00 -9.5779715158400E-02
22  2.1000000000000E-01  1.4612420653321E+00 -9.4038904134503E-02
23  2.2000000000000E-01  1.5047512229337E+00 -9.0169554628907E-02
24  2.3000000000000E-01  1.5443188718470E+00 -8.3925827144746E-02
25  2.4000000000000E-01  1.5797632778755E+00 -7.5075854076768E-02
26  2.5000000000000E-01  1.6109178959128E+00 -6.3406712382464E-02
27  2.6000000000000E-01  1.6376337158737E+00 -4.8729161198142E-02
28  2.7000000000000E-01  1.6597814488850E+00 -3.0882040449826E-02
29  2.8000000000000E-01  1.6772535093232E+00 -9.7362330633407E-03
30  2.9000000000000E-01  1.6899657520333E+00  1.4801897899462E-02
31  3.0000000000000E-01  1.6978589287019E+00  4.2787675136324E-02
32  3.1000000000000E-01  1.7008998327830E+00  7.4235941507854E-02
33  3.2000000000000E-01  1.6990821084788E+00  1.0911961443633E-01
34  3.3000000000000E-01  1.6924267059288E+00  1.4736899659200E-01
35  3.4000000000000E-01  1.6809819718198E+00  1.8887186308148E-01
36  3.5000000000000E-01  1.6648233719417E+00  2.3347432873932E-01
37  3.6000000000000E-01  1.6440528496270E+00  2.8098248233828E-01
38  3.7000000000000E-01  1.6187978313612E+00  3.3116475794209E-01
39  3.8000000000000E-01  1.5892098979784E+00  3.8375499759385E-01
40  3.9000000000000E-01  1.5554631466065E+00  4.3845614442148E-01
41  4.0000000000000E-01  1.5177522747440E+00  4.9494449138675E-01
42  4.1000000000000E-01  1.4762904234090E+00  5.5287439862438E-01
43  4.2000000000000E-01  1.4313068210625E+00  6.1188338189154E-01
44  4.3000000000000E-01  1.3830442738725E+00  6.7159746632479E-01
45  4.4000000000000E-01  1.3317565507637E+00  7.3163669367801E-01
46  4.5000000000000E-01  1.2777057135148E+00  7.9162066764491E-01
47  4.6000000000000E-01  1.2211594428849E+00  8.5117402085078E-01
48  4.7000000000000E-01  1.1623884113428E+00  9.0993168867446E-01
49  4.8000000000000E-01  1.1016637514501E+00  9.6754387921808E-01
50  4.9000000000000E-01  1.0392546663291E+00  1.0236806354092E+00
51  5.0000000000000E-01  9.7542622499219E-01  1.0780358942680E+00
52  5.1000000000000E-01  9.1043738069030E-01  1.1303309596217E+00
53  5.2000000000000E-01  8.4453924495462E-01  1.1803173177652E+00
54  5.3000000000000E-01  7.7797364377829E-01  1.2277787404688E+00
55  5.4000000000000E-01  7.1097197554725E-01  1.2725326360128E+00
56  5.5000000000000E-01  6.4375438303442E-01  1.3144306262096E+00
57  5.6000000000000E-01  5.7652924418216E-01  1.3533583453026E+00
58  5.7000000000000E-01  5.0949297868530E-01  1.3892344747832E+00
59  5.8000000000000E-01  4.4283015972734E-01  1.4220090461532E+00
60  5.9000000000000E-01  3.7671391279215E-01  1.4516610610546E+00
61  6.0000000000000E-01  3.1130657644569E-01  1.4781954946021E+00
62  6.1000000000000E-01  2.4676059352375E-01  1.5016397627920E+00
63  6.2000000000000E-01  1.8321959542666E-01  1.5220397481667E+00
64  6.3000000000000E-01  1.2081963735225E-01  1.5394554891697E+00
65  6.4000000000000E-01  5.9690538414803E-02  1.5539566475326E+00
66  6.5000000000000E-01 -4.2722195565770E-05  1.5656178743796E+00
67  6.6000000000000E-01 -5.8258603485923E-02  1.5745141993165E+00
68  6.7000000000000E-01 -1.1483764624554E-01  1.5807165674852E+00
69  6.8000000000000E-01 -1.6966121198408E-01  1.5842876473460E+00
70  6.9000000000000E-01 -2.2261036518269E-01  1.5852780268122E+00
71  7.0000000000000E-01 -2.7356494352448E-01  1.5837229073696E+00
72  7.1000000000000E-01 -3.2240285632395E-01  1.5796393951227E+00
73  7.2000000000000E-01 -3.6899964586203E-01  1.5730244745015E+00
74  7.3000000000000E-01 -4.1322833986435E-01  1.5638537349220E+00
75  7.4000000000000E-01 -4.5495961607245E-01  1.5520809033160E+00
76  7.5000000000000E-01 -4.9406229190591E-01  1.5376382165125E+00
77  7.6000000000000E-01 -5.3040414377147E-01  1.5204376473613E+00
78  7.7000000000000E-01 -5.6385305183272E-01  1.5003729776777E+00
79  7.8000000000000E-01 -5.9427845720594E-01  1.4773226900242E+00
80  7.9000000000000E-01 -6.2155310980045E-01  1.4511536294958E+00
81  8.0000000000000E-01 -6.4555507657827E-01  1.4217253665267E+00
82  8.1000000000000E-01 -6.6616997207097E-01  1.3888951727522E+00
83  8.2000000000000E-01 -6.8329336575298E-01  1.3525235045944E+00
84  8.3000000000000E-01 -6.9683331451417E-01  1.3124798739210E+00
85  8.4000000000000E-01 -7.0671296316166E-01  1.2686489722269E+00
86  8.5000000000000E-01 -7.1287315175849E-01  1.2209369046604E+00
87  8.6000000000000E-01 -7.1527496579280E-01  1.1692773831291E+00
88  8.7000000000000E-01 -7.1390216375893E-01  1.1136377238997E+00
89  8.8000000000000E-01 -7.0876341678465E-01  1.0540244946949E+00
90  8.9000000000000E-01 -6.9989429648716E-01  9.9048865937728E-01
91  9.0000000000000E-01 -6.8735895028354E-01  9.2313007487582E-01
92  9.1000000000000E-01 -6.7125140788437E-01  8.5210120499961E-01
93  9.2000000000000E-01 -6.5169646859400E-01  7.7760992902582E-01
94  9.3000000000000E-01 -6.2885012622775E-01  6.9992133922526E-01
95  9.4000000000000E-01 -6.0289949680452E-01  6.1935844049721E-01
96  9.5000000000000E-01 -5.7406222352555E-01  5.3630168666349E-01
97  9.6000000000000E-01 -5.4258534372128E-01  4.5118731129701E-01
98  9.7000000000000E-01 -5.0874361323402E-01  3.6450443575699E-01
99  9.8000000000000E-01 -4.7283729488603E-01  2.7679096287306E-01
100  9.9000000000000E-01 -4.3518942902096E-01  1.8862829090510E-01
101  1.0000000000000E+00 -3.9614261536288E-01  1.0063490845833E-01
102  1.0100000000000E+00 -3.5605534636425E-01  1.3458956379840E-02
103  1.0200000000000E+00 -3.1529794257838E-01 -7.2230133237619E-02
104  1.0300000000000E+00 -2.7424815014726E-01 -1.5575078853294E-01
105  1.0400000000000E+00 -2.3328646903012E-01 -2.3641908744883E-01
106  1.0500000000000E+00 -1.9279128791680E-01 -3.1355901579389E-01
107  1.0600000000000E+00 -1.5313390767590E-01 -3.8651301019447E-01
108  1.0700000000000E+00 -1.1467353954898E-01 -4.5465259186328E-01
109  1.0800000000000E+00 -7.7752366987262E-02 -5.1738889047557E-01
110  1.0900000000000E+00 -4.2690760953755E-02 -5.7418285483606E-01
111  1.1000000000000E+00 -9.7827376281646E-03 -6.2455494856813E-01
112  1.1100000000000E+00  2.0708255250006E-02 -6.6809413477905E-01
113  1.1200000000000E+00  4.8553141670712E-02 -7.0446596352355E-01
114  1.1300000000000E+00  7.3560534775277E-02 -7.3341958972731E-01
115  1.1400000000000E+00  9.5579500776765E-02 -7.5479356684053E-01
116  1.1500000000000E+00  1.1450171109776E-01 -7.6852028253587E-01
117  1.1600000000000E+00  1.3026293512571E-01 -7.7462892687966E-01
118  1.1700000000000E+00  1.4284383777278E-01 -7.7324691008437E-01
119  1.1800000000000E+00  1.5227005874193E-01 -7.6459967578667E-01
120  1.1900000000000E+00  1.5861156370040E-01 -7.4900888600438E-01
121  1.2000000000000E+00  1.6198127134198E-01 -7.2688898526838E-01
122  1.2100000000000E+00  1.6253297407702E-01 -6.9874218274992E-01
123  1.2200000000000E+00  1.6045858381780E-01 -6.6515192249233E-01
124  1.2300000000000E+00  1.5598474748724E-01 -6.2677494187466E-01
125  1.2400000000000E+00  1.4936888937529E-01 -5.8433204695997E-01
126  1.2500000000000E+00  1.4089474899534E-01 -5.3859775971559E-01
127  1.2600000000000E+00  1.3086749333301E-01 -4.9038901550106E-01
128  1.2700000000000E+00  1.1960849125598E-01 -4.4055310952723E-01
129  1.2800000000000E+00  1.0744984505256E-01 -3.8995510747448E-01
130  1.2900000000000E+00  9.4728779633035E-02 -3.3946494826043E-01
131  1.3000000000000E+00  8.1781988480684E-02 -2.8994446236162E-01
132  1.3100000000000E+00  6.8940084069876E-02 -2.4223465042380E-01
133  1.3200000000000E+00  5.6520868926039E-02 -1.9713995067047E-01
134  1.3300000000000E+00  4.4819365373522E-02 -1.5540419935398E-01
135  1.3400000000000E+00  3.4092549561613E-02 -1.1767541604000E-01
136  1.3500000000000E+00  2.4550730412448E-02 -8.4485606428780E-02
137  1.3600000000000E+00  1.6397638983306E-02 -5.6342513535409E-02
138  1.3700000000000E+00  9.7926978781324E-03 -3.3645431580674E-02
139  1.3800000000000E+00  4.8472519934894E-03 -1.6677070146574E-02
140  1.3900000000000E+00  1.6136938070889E-03 -5.5676442024870E-03
141  1.4000000000000E+00  1.5055172394242E-04 -5.2180029282760E-04
142  1.4100000000000E+00 -1.6334298280146E-05  5.6764524087560E-05
143  1.4200000000000E+00  2.0142636683581E-06 -6.9831084895515E-06
144  1.43 -0.  0.
145  1.44  0.  0.
146  1.45  0.  0.
147  1.46  0.  0.
148  1.47  0.  0.
149  1.48  0.  0.
150  1.49  0.  0.
151  1.50  0.  0.
152  1.51  0.  0.
153  1.52  0.  0.
154  1.53  0.  0.
155  1.54  0.  0.
156  1.55  0.  0.
157  1.56  0.  0.
158  1.57  0.  0.
159  1.58  0.  0.
160  1.59  0.  0.
161  1.60  0.  0.
162  1.61  0.  0.
163  1.62  0.  0.
164  1.63  0.  0.
165  1.64  0.  0.
166  1.65  0.  0.
167  1.66  0.  0.
168  1.67  0.  0.
169  1.68  0.  0.
170  1.69  0.  0.
171  1.70  0.  0.
172  1.71  0.  0.
173  1.72  0.  0.
174  1.73  0.  0.
175  1.74  0.  0.
176  1.75  0.  0.
177  1.76  0.  0.
178  1.77  0.  0.
179  1.78  0.  0.
180  1.79  0.  0.
181  1.80  0.  0.
182  1.81  0.  0.
183  1.82  0.  0.
184  1.83  0.  0.
185  1.84  0.  0.
186  1.85  0.  0.
187  1.86  0.  0.
188  1.87  0.  0.
189  1.88  0.  0.
190  1.89  0.  0.
191  1.90  0.  0.
192  1.91  0.  0.
193  1.92  0.  0.
194  1.93  0.  0.
195  1.94  0.  0.
196  1.95  0.  0.
197  1.96  0.  0.
198  1.97  0.  0.
199  1.98  0.  0.
200  1.99  0.  0.
201  2.00  0.  0.
202  2.01  0.  0.
203  2.02  0.  0.
204  2.03  0.  0.
205  2.04  0.  0.
206  2.05  0.  0.
207  2.06  0.  0.
208  2.07  0.  0.
209  2.08  0.  0.
210  2.09  0.  0.
211  2.10  0.  0.
212  2.11  0.  0.
213  2.12  0.  0.
214  2.13  0.  0.
215  2.14  0.  0.
216  2.15  0.  0.
217  2.16  0.  0.
218  2.17  0.  0.
219  2.18  0.  0.
220  2.19  0.  0.
221  2.20  0.  0.
222  2.21  0.  0.
223  2.22  0.  0.
224  2.23  0.  0.
225  2.24  0.  0.
226  2.25  0.  0.
227  2.26  0.  0.
228  2.27  0.  0.
229  2.28  0.  0.
230  2.29  0.  0.
231  2.30  0.  0.
232  2.31  0.  0.
233  2.32  0.  0.
234  2.33  0.  0.
235  2.34  0.  0.
236  2.35  0.  0.
237  2.36  0.  0.
238  2.37  0.  0.
239  2.38  0.  0.
240  2.39  0.  0.
241  2.40  0.  0.
242  2.41  0.  0.
243  2.42  0.  0.
244  2.43  0.  0.
245  2.44  0.  0.
246  2.45  0.  0.
247  2.46  0.  0.
248  2.47  0.  0.
249  2.48  0.  0.
250  2.49  0.  0.
251  2.50  0.  0.
252  2.51  0.  0.
253  2.52  0.  0.
254  2.53  0.  0.
255  2.54  0.  0.
256  2.55  0.  0.
257  2.56  0.  0.
258  2.57  0.  0.
259  2.58  0.  0.
260  2.59  0.  0.
261  2.60  0.  0.
262  2.61  0.  0.
263  2.62  0.  0.
264  2.63  0.  0.
265  2.64  0.  0.
266  2.65  0.  0.
267  2.66  0.  0.
268  2.67  0.  0.
269  2.68  0.  0.
270  2.69  0.  0.
271  2.70  0.  0.
272  2.71  0.  0.
273  2.72  0.  0.
274  2.73  0.  0.
275  2.74  0.  0.
276  2.75  0.  0.
277  2.76  0.  0.
278  2.77  0.  0.
279  2.78  0.  0.
280  2.79  0.  0.
281  2.80  0.  0.
282  2.81  0.  0.
283  2.82  0.  0.
284  2.83  0.  0.
285  2.84  0.  0.
286  2.85  0.  0.
287  2.86  0.  0.
288  2.87  0.  0.
289  2.88  0.  0.
290  2.89  0.  0.
291  2.90  0.  0.
292  2.91  0.  0.
293  2.92  0.  0.
294  2.93  0.  0.
295  2.94  0.  0.
296  2.95  0.  0.
297  2.96  0.  0.
298  2.97  0.  0.
299  2.98  0.  0.
300  2.99  0.  0.
301  3.00  0.  0.
302  3.01  0.  0.
303  3.02  0.  0.
304  3.03  0.  0.
305  3.04  0.  0.
306  3.05  0.  0.
307  3.06  0.  0.
308  3.07  0.  0.
309  3.08  0.  0.
310  3.09  0.  0.
311  3.10  0.  0.
312  3.11  0.  0.
313  3.12  0.  0.
314  3.13  0.  0.
315  3.14  0.  0.
316  3.15  0.  0.
317  3.16  0.  0.
318  3.17  0.  0.
319  3.18  0.  0.
320  3.19  0.  0.
321  3.20  0.  0.
322  3.21  0.  0.
323  3.22  0.  0.
324  3.23  0.  0.
325  3.24  0.  0.
326  3.25  0.  0.
327  3.26  0.  0.
328  3.27  0.  0.
329  3.28  0.  0.
330  3.29  0.  0.
331  3.30  0.  0.
332  3.31  0.  0.
333  3.32  0.  0.
334  3.33  0.  0.
335  3.34  0.  0.
336  3.35  0.  0.
337  3.36  0.  0.
338  3.37  0.  0.
339  3.38  0.  0.
340  3.39  0.  0.
341  3.40  0.  0.
342  3.41  0.  0.
343  3.42  0.  0.
344  3.43  0.  0.
345  3.44  0.  0.
346  3.45  0.  0.
347  3.46  0.  0.
348  3.47  0.  0.
349  3.48  0.  0.
350  3.49  0.  0.
351  3.50  0.  0.
352  3.51  0.  0.
353  3.52  0.  0.
354  3.53  0.  0.
355  3.54  0.  0.
356  3.55  0.  0.
357  3.56  0.  0.
358  3.57  0.  0.
359  3.58  0.  0.
360  3.59  0.  0.
361  3.60  0.  0.
362  3.61  0.  0.
363  3.62  0.  0.
364  3.63  0.  0.
365  3.64  0.  0.
366  3.65  0.  0.
367  3.66  0.  0.
368  3.67  0.  0.
369  3.68  0.  0.
370  3.69  0.  0.
371  3.70  0.  0.
372  3.71  0.  0.
373  3.72  0.  0.
374  3.73  0.  0.
375  3.74  0.  0.
376  3.75  0.  0.
377  3.76  0.  0.
378  3.77  0.  0.
379  3.78  0.  0.
380  3.79  0.  0.
381  3.80  0.  0.
382  3.81  0.  0.
383  3.82  0.  0.
384  3.83  0.  0.
385  3.84  0.  0.
386  3.85  0.  0.
387  3.86  0.  0.
388  3.87  0.  0.
389  3.88  0.  0.
390  3.89  0.  0.
391  3.90  0.  0.
392  3.91  0.  0.
393  3.92  0.  0.
394  3.93  0.  0.
395  3.94  0.  0.
396  3.95  0.  0.
397  3.96  0.  0.
398  3.97  0.  0.
399  3.98  0.  0.
400  3.99  0.  0.
401  4.00  0.  0.
402  4.01  0.  0.
403  4.02  0.  0.
404  4.03  0.  0.
405  4.04  0.  0.
406  4.05  0.  0.
407  4.06  0.  0.
408  4.07  0.  0.
409  4.08  0.  0.
410  4.09  0.  0.
411  4.10  0.  0.
412  4.11  0.  0.
413  4.12  0.  0.
414  4.13  0.  0.
415  4.14  0.  0.
416  4.15  0.  0.
417  4.16  0.  0.
418  4.17  0.  0.
419  4.18  0.  0.
420  4.19  0.  0.
421  4.20  0.  0.
422  4.21  0.  0.
423  4.22  0.  0.
424  4.23  0.  0.
425  4.24  0.  0.
426  4.25  0.  0.
427  4.26  0.  0.
428  4.27  0.  0.
429  4.28  0.  0.
430  4.29  0.  0.
431  4.30  0.  0.
432  4.31  0.  0.
433  4.32  0.  0.
434  4.33  0.  0.
435  4.34  0.  0.
436  4.35  0.  0.
437  4.36  0.  0.
438  4.37  0.  0.
439  4.38  0.  0.
440  4.39  0.  0.
441  4.40  0.  0.
442  4.41  0.  0.
443  4.42  0.  0.
444  4.43  0.  0.
445  4.44  0.  0.
446  4.45  0.  0.
447  4.46  0.  0.
448  4.47  0.  0.
449  4.48  0.  0.
450  4.49  0.  0.
451  4.50  0.  0.
452  4.51  0.  0.
453  4.52  0.  0.
454  4.53  0.  0.
455  4.54  0.  0.
456  4.55  0.  0.
457  4.56  0.  0.
458  4.57  0.  0.
459  4.58  0.  0.
460  4.59  0.  0.
461  4.60  0.  0.
462  4.61  0.  0.
463  4.62  0.  0.
464  4.63  0.  0.
465  4.64  0.  0.
466  4.65  0.  0.
467  4.66  0.  0.
468  4.67  0.  0.
469  4.68  0.  0.
470  4.69  0.  0.
471  4.70  0.  0.
472  4.71  0.  0.
473  4.72  0.  0.
474  4.73  0.  0.
475  4.74  0.  0.
476  4.75  0.  0.
477  4.76  0.  0.
478  4.77  0.  0.
479  4.78  0.  0.
480  4.79  0.  0.
481  4.80  0.  0.
482  4.81  0.  0.
483  4.82  0.  0.
484  4.83  0.  0.
485  4.84  0.  0.
486  4.85  0.  0.
487  4.86  0.  0.
488  4.87  0.  0.
489  4.88  0.  0.
490  4.89  0.  0.
491  4.90  0.  0.
492  4.91  0.  0.
493  4.92  0.  0.
494  4.93  0.  0.
495  4.94  0.  0.
496  4.95  0.  0.
497  4.96  0.  0.
498  4.97  0.  0.
499  4.98  0.  0.
500  4.99  0.  0.
501  5.00  0.  0.
502  5.01  0.  0.
503  5.02  0.  0.
504  5.03  0.  0.
505  5.04  0.  0.
506  5.05  0.  0.
507  5.06  0.  0.
508  5.07  0.  0.
509  5.08  0.  0.
510  5.09  0.  0.
511  5.10  0.  0.
512  5.11  0.  0.
513  5.12  0.  0.
514  5.13  0.  0.
515  5.14  0.  0.
516  5.15  0.  0.
517  5.16  0.  0.
518  5.17  0.  0.
519  5.18  0.  0.
520  5.19  0.  0.
521  5.20  0.  0.
522  5.21  0.  0.
523  5.22  0.  0.
524  5.23  0.  0.
525  5.24  0.  0.
526  5.25  0.  0.
527  5.26  0.  0.
528  5.27  0.  0.
529  5.28  0.  0.
530  5.29  0.  0.
531  5.30  0.  0.
532  5.31  0.  0.
533  5.32  0.  0.
534  5.33  0.  0.
535  5.34  0.  0.
536  5.35  0.  0.
537  5.36  0.  0.
538  5.37  0.  0.
539  5.38  0.  0.
540  5.39  0.  0.
541  5.40  0.  0.
542  5.41  0.  0.
543  5.42  0.  0.
544  5.43  0.  0.
545  5.44  0.  0.
546  5.45  0.  0.
547  5.46  0.  0.
548  5.47  0.  0.
549  5.48  0.  0.
550  5.49  0.  0.
551  5.50  0.  0.
552  5.51  0.  0.
553  5.52  0.  0.
554  5.53  0.  0.
555  5.54  0.  0.
556  5.55  0.  0.
557  5.56  0.  0.
558  5.57  0.  0.
559  5.58  0.  0.
560  5.59  0.  0.
561  5.60  0.  0.
562  5.61  0.  0.
563  5.62  0.  0.
564  5.63  0.  0.
565  5.64  0.  0.
566  5.65  0.  0.
567  5.66  0.  0.
568  5.67  0.  0.
569  5.68  0.  0.
570  5.69  0.  0.
571  5.70  0.  0.
572  5.71  0.  0.
573  5.72  0.  0.
574  5.73  0.  0.
575  5.74  0.  0.
576  5.75  0.  0.
577  5.76  0.  0.
578  5.77  0.  0.
579  5.78  0.  0.
580  5.79  0.  0.
581  5.80  0.  0.
582  5.81  0.  0.
583  5.82  0.  0.
584  5.83  0.  0.
585  5.84  0.  0.
586  5.85  0.  0.
587  5.86  0.  0.
588  5.87  0.  0.
589  5.88  0.  0.
590  5.89  0.  0.
591  5.90  0.  0.
592  5.91  0.  0.
593  5.92  0.  0.
594  5.93  0.  0.
595  5.94  0.  0.
596  5.95  0.  0.
597  5.96  0.  0.
598  5.97  0.  0.
599  5.98  0.  0.
600  5.99  0.  0.
1                         6.6532029455547E+00  1.0278994515612E+00
1  0.0000000000000E+00 -6.6047027846849E-09  1.6347909298844E-08
2  1.0000000000000E-02  1.6472573129895E-03  2.8192544071365E-04
3  2.0000000000000E-02  6.5876220367300E-03  1.1138804598845E-03
4  3.0000000000000E-02  1.4816730472187E-02  2.4548116319696E-03
5  4.0000000000000E-02  2.6326840300815E-02  4.2376549477812E-03
6  5.0000000000000E-02  4.1106140347185E-02  6.3713388978885E-03
7  6.0000000000000E-02  5.9137811900412E-02  8.7435206546153E-03
8  7.0000000000000E-02  8.0398868481153E-02  1.1223989063217E-02
9  8.0000000000000E-02  1.0485880754564E-01  1.3668651804914E-02
10  9.0000000000000E-02  1.3247811344752E-01  1.5924009612044E-02
11  1.0000000000000E-01  1.6320665589448E-01  1.7832008131109E-02
12  1.1000000000000E-01  1.9698203202231E-01  1.9235148224199E-02
13  1.2000000000000E-01  2.3372790296957E-01  1.9981728403326E-02
14  1.3000000000000E-01  2.7335237740014E-01  1.9931088875777E-02
15  1.4000000000000E-01  3.1574649474508E-01  1.8958725448098E-02
16  1.5000000000000E-01  3.6078286000210E-01  1.6961143334247E-02
17  1.6000000000000E-01  4.0831447975141E-01  1.3860325714956E-02
18  1.7000000000000E-01  4.5817384565886E-01  9.6076996085937E-03
19  1.8000000000000E-01  5.1017230720746E-01  4.1874920837094E-03
20  1.9000000000000E-01  5.6409976981614E-01 -2.3806171478447E-03
21  2.0000000000000E-01  6.1972474798698E-01 -1.0039625446142E-02
22  2.1000000000000E-01  6.7679479580346E-01 -1.8694180745223E-02
23  2.2000000000000E-01  7.3503732914026E-01 -2.8210441544596E-02
24  2.3000000000000E-01  7.9416084550831E-01 -3.8416846158694E-02
25  2.4000000000000E-01  8.5385653873197E-01 -4.9105793338315E-02
26  2.5000000000000E-01  9.1380029682774E-01 -6.0036215458926E-02
27  2.6000000000000E-01  9.7365506272179E-01 -7.0937004752677E-02
28  2.7000000000000E-01  1.0330735290005E+00 -8.1511233009203E-02
29  2.8000000000000E-01  1.0917011299255E+00 -9.1441086239000E-02
30  2.9000000000000E-01  1.1491792866435E+00 -1.0039341841606E-01
31  3.0000000000000E-01  1.2051488550498E+00 -1.0802581299682E-01
32  3.1000000000000E-01  1.2592537202789E+00 -1.1399302781447E-01
33  3.2000000000000E-01  1.3111444774232E+00 -1.1795368848702E-01
34  3.3000000000000E-01  1.3604821349387E+00 -1.1957708791633E-01
35  3.4000000000000E-01  1.4069417753624E+00 -1.1854994499278E-01
36  3.5000000000000E-01  1.4502161075026E+00 -1.1458297438995E-01
37  3.6000000000000E-01  1.4900188451928E+00 -1.0741712140067E-01
38  3.7000000000000E-01  1.5260878500244E+00 -9.6829321119725E-02
39  3.8000000000000E-01  1.5581879791604E+00 -8.2637649840506E-02
40  3.9000000000000E-01  1.5861135843096E+00 -6.4705748148774E-02
41  4.0000000000000E-01  1.6096906141360E+00 -4.2946409645537E-02
42  4.1000000000000E-01  1.6287782796481E+00 -1.7324246225692E-02
43  4.2000000000000E-01  1.6432702503331E+00  1.2142639968025E-02
44  4.3000000000000E-01  1.6530953577975E+00  4.5382026802643E-02
45  4.4000000000000E-01  1.6582177932575E+00  8.2268011163067E-02
46  4.5000000000000E-01  1.6586367952020E+00  1.2262252002517E-01
47  4.6000000000000E-01  1.6543858337057E+00  1.6621787331352E-01
48  4.7000000000000E-01  1.6455313079875E+00  2.1278035481780E-01
49  4.8000000000000E-01  1.6321707836667E+00  2.6199472466820E-01
50  4.9000000000000E-01  1.6144308055580E+00  3.1350958528462E-01
51  5.0000000000000E-01  1.5924643305430E+00  3.6694349281197E-01
52  5.1000000000000E-01  1.5664478328797E+00  4.2189168830053E-01
53  5.2000000000000E-01  1.5365781410722E+00  4.7793330770962E-01
54  5.3000000000000E-01  1.5030690709635E+00  5.3463891757833E-01
55  5.4000000000000E-01  1.4661479239080E+00  5.9157821423079E-01
56  5.5000000000000E-01  1.4260519216074E+00  6.4832771891124E-01
57  5.6000000000000E-01  1.3830246503953E+00  7.0447829944713E-01
58  5.7000000000000E-01  1.3373125873741E+00  7.5964235100666E-01
59  5.8000000000000E-01  1.2891617788454E+00  8.1346047426355E-01
60  5.9000000000000E-01  1.2388147379500E+00  8.6560749872872E-01
61  6.0000000000000E-01  1.1865076234150E+00  9.1579771200199E-01
62  6.1000000000000E-01  1.1324677548789E+00  9.6378917199693E-01
63  6.2000000000000E-01  1.0769115125649E+00  1.0093869984840E+00
64  6.3000000000000E-01  1.0200426602526E+00  1.0524455621957E+00
65  6.4000000000000E-01  9.6205112073793E-01  1.0928695137906E+00
66  6.5000000000000E-01  9.0311222248430E-01  1.1306136206804E+00
67  6.6000000000000E-01  8.4338642517668E-01  1.1656814065305E+00
68  6.7000000000000E-01  7.8301952062841E-01  1.1981226155747E+00
69  6.8000000000000E-01  7.2214329421910E-01  1.2280295511307E+00
70  6.9000000000000E-01  6.6087662100138E-01  1.2555323642593E+00
71  7.0000000000000E-01  5.9932696006178E-01  1.2807933937659E+00
72  7.1000000000000E-01  5.3759220089810E-01  1.3040006821265E+00
73  7.2000000000000E-01  4.7576280671216E-01  1.3253608128559E+00
74  7.3000000000000E-01  4.1392419182557E-01  1.3450912328477E+00
75  7.4000000000000E-01  3.5215926409630E-01  1.3634122378194E+00
76  7.5000000000000E-01  2.9055105840649E-01  1.3805388098404E+00
77  7.6000000000000E-01  2.2918538413723E-01  1.3966725026765E+00
78  7.7000000000000E-01  1.6815340813933E-01  1.4119935731509E+00
79  7.8000000000000E-01  1.0755409510675E-01  1.4266535547573E+00
80  7.9000000000000E-01  4.7496429481186E-02  1.4407684633453E+00
81  8.0000000000000E-01 -1.1898652962173E-02  1.4544128138871E+00
82  8.1000000000000E-01 -7.0496689936747E-02  1.4676146123054E+00
83  8.2000000000000E-01 -1.2814853256793E-01  1.4803514673387E+00
84  8.3000000000000E-01 -1.8468965021930E-01  1.4925479448170E+00
85  8.4000000000000E-01 -2.3993993981176E-01  1.5040742609303E+00
86  8.5000000000000E-01 -2.9370406790262E-01  1.5147463826340E+00
87  8.6000000000000E-01 -3.4577236159170E-01  1.5243275728121E+00
88  8.7000000000000E-01 -3.9592225150470E-01  1.5325313858603E+00
89  8.8000000000000E-01 -4.4392025694573E-01  1.5390260866315E+00
90  8.9000000000000E-01 -4.8952449010000E-01  1.5434404329082E+00
91  9.0000000000000E-01 -5.3248764319869E-01  1.5453707294636E+00
92  9.1000000000000E-01 -5.7256041012234E-01  1.5443890310375E+00
93  9.2000000000000E-01 -6.0949528230520E-01  1.5400523429118E+00
94  9.3000000000000E-01 -6.4305064828101E-01  1.5319126418583E+00
95  9.4000000000000E-01 -6.7299511703412E-01  1.5195275176800E+00
96  9.5000000000000E-01 -6.9911197771479E-01  1.5024712169187E+00
97  9.6000000000000E-01 -7.2120370244052E-01  1.4803458560279E+00
98  9.7000000000000E-01 -7.3909639499396E-01  1.4527925617983E+00
99  9.8000000000000E-01 -7.5264408636404E-01  1.4195022923574E+00
100  9.9000000000000E-01 -7.6173277833710E-01  1.3802260928287E+00
101  1.0000000000000E+00 -7.6628413875953E-01  1.3347845457984E+00
102  1.0100000000000E+00 -7.6625875664552E-01  1.2830761880480E+00
103  1.0200000000000E+00 -7.6165887193794E-01  1.2250846814263E+00
104  1.0300000000000E+00 -7.5253050333228E-01  1.1608845469757E+00
105  1.0400000000000E+00 -7.3896490798311E-01  1.0906452970852E+00
106  1.0500000000000E+00 -7.2109931896401E-01  1.0146338301188E+00
107  1.0600000000000E+00 -6.9911691977223E-01  9.3321498498369E-01
108  1.0700000000000E+00 -6.7324602971889E-01  8.4685018886515E-01
109  1.0800000000000E+00 -6.4375848944689E-01  7.5609416919402E-01
110  1.0900000000000E+00 -6.1096725168490E-01  6.6158973986400E-01
111  1.1000000000000E+00 -5.7522319846361E-01  5.6406071127128E-01
112  1.1100000000000E+00 -5.3691122191262E-01  4.6430301272858E-01
113  1.1200000000000E+00 -4.9644562121176E-01  3.6317415370132E-01
114  1.1300000000000E+00 -4.5426488285526E-01  2.6158118605797E-01
115  1.1400000000000E+00 -4.1082592484871E-01  1.6046736250982E-01
116  1.1500000000000E+00 -3.6659789745558E-01  6.0797715797549E-02
117  1.1600000000000E+00 -3.2205564339932E-01 -3.6456191624007E-02
118  1.1700000000000E+00 -2.7767292874436E-01 -1.3033207729130E-01
119  1.1800000000000E+00 -2.3391556185610E-01 -2.1989302260116E-01
120  1.1900000000000E+00 -1.9123452168813E-01 -3.0424353620049E-01
121  1.2000000000000E+00 -1.5005921808202E-01 -3.8254529873720E-01
122  1.2100000000000E+00 -1.1079100573224E-01 -4.5403229333650E-01
123  1.2200000000000E+00 -7.3797069930529E-02 -5.1802503481363E-01
124  1.2300000000000E+00 -3.9404796256801E-02 -5.7394362516627E-01
125  1.2400000000000E+00 -7.8967280980508E-03 -6.2131938313228E-01
126  1.2500000000000E+00  2.0493794638714E-02 -6.5980482128230E-01
127  1.2600000000000E+00  4.5586234667857E-02 -6.8918177443180E-01
128  1.2700000000000E+00  6.7255627628454E-02 -7.0936751796921E-01
129  1.2800000000000E+00  8.5434472551503E-02 -7.2041875300253E-01
130  1.2900000000000E+00  1.0011370843740E-01 -7.2253337668093E-01
131  1.3000000000000E+00  1.1134275541740E-01 -7.1604998298240E-01
132  1.3100000000000E+00  1.1922865711202E-01 -7.0144520925096E-01
133  1.3200000000000E+00  1.2393297972204E-01 -6.7932472143354E-01
134  1.3300000000000E+00  1.2566370730073E-01 -6.5039950941429E-01
135  1.3400000000000E+00  1.2466845497215E-01 -6.1546750366111E-01
136  1.3500000000000E+00  1.2122950332196E-01 -5.7540157031852E-01
137  1.3600000000000E+00  1.1565818279358E-01 -5.3113590903462E-01
138  1.3700000000000E+00  1.0828874060038E-01 -4.8365120181487E-01
139  1.3800000000000E+00  9.9471780481761E-02 -4.3395871703305E-01
140  1.3900000000000E+00  8.9567396564467E-02 -3.8308366507775E-01
141  1.4000000000000E+00  7.8938127817753E-02 -3.3204811381510E-01
142  1.4100000000000E+00  6.7941871272677E-02 -2.8185379744116E-01
143  1.4200000000000E+00  5.6924823396710E-02 -2.3346501568788E-01
144  1.4300000000000E+00  4.6214847903595E-02 -1.8779247968911E-01
145  1.4400000000000E+00  3.6106836497517E-02 -1.4566121609218E-01
146  1.4500000000000E+00  2.6857045675125E-02 -1.0779590914522E-01
147  1.4600000000000E+00  1.8712857010417E-02 -7.4878933234794E-02
148  1.4700000000000E+00  1.1878797370116E-02 -4.7481416076556E-02
149  1.4800000000000E+00  6.5121320473932E-03 -2.6052430834204E-02
150  1.4900000000000E+00  2.7200027035852E-03 -1.0912219773676E-02
151  1.5000000000000E+00  5.6124089350281E-04 -2.2624293638580E-03
152  1.5100000000000E+00 -2.4499702358573E-05  9.9220741186474E-05
153  1.5200000000000E+00  8.4859617271302E-06 -3.4298024274054E-05
154  1.53 -0.  0.
155  1.54 -0.  0.
156  1.55  0.  0.
157  1.56  0.  0.
158  1.57  0.  0.
159  1.58  0.  0.
160  1.59  0.  0.
161  1.60  0.  0.
162  1.61  0.  0.
163  1.62  0.  0.
164  1.63  0.  0.
165  1.64  0.  0.
166  1.65  0.  0.
167  1.66  0.  0.
168  1.67  0.  0.
169  1.68  0.  0.
170  1.69  0.  0.
171  1.70  0.  0.
172  1.71  0.  0.
173  1.72  0.  0.
174  1.73  0.  0.
175  1.74  0.  0.
176  1.75  0.  0.
177  1.76  0.  0.
178  1.77  0.  0.
179  1.78  0.  0.
180  1.79  0.  0.
181  1.80  0.  0.
182  1.81  0.  0.
183  1.82  0.  0.
184  1.83  0.  0.
185  1.84  0.  0.
186  1.85  0.  0.
187  1.86  0.  0.
188  1.87  0.  0.
189  1.88  0.  0.
190  1.89  0.  0.
191  1.90  0.  0.
192  1.91  0.  0.
193  1.92  0.  0.
194  1.93  0.  0.
195  1.94  0.  0.
196  1.95  0.  0.
197  1.96  0.  0.
198  1.97  0.  0.
199  1.98  0.  0.
200  1.99  0.  0.
201  2.00  0.  0.
202  2.01  0.  0.
203  2.02  0.  0.
204  2.03  0.  0.
205  2.04  0.  0.
206  2.05  0.  0.
207  2.06  0.  0.
208  2.07  0.  0.
209  2.08  0.  0.
210  2.09  0.  0.
211  2.10  0.  0.
212  2.11  0.  0.
213  2.12  0.  0.
214  2.13  0.  0.
215  2.14  0.  0.
216  2.15  0.  0.
217  2.16  0.  0.
218  2.17  0.  0.
219  2.18  0.  0.
220  2.19  0.  0.
221  2.20  0.  0.
222  2.21  0.  0.
223  2.22  0.  0.
224  2.23  0.  0.
225  2.24  0.  0.
226  2.25  0.  0.
227  2.26  0.  0.
228  2.27  0.  0.
229  2.28  0.  0.
230  2.29  0.  0.
231  2.30  0.  0.
232  2.31  0.  0.
233  2.32  0.  0.
234  2.33  0.  0.
235  2.34  0.  0.
236  2.35  0.  0.
237  2.36  0.  0.
238  2.37  0.  0.
239  2.38  0.  0.
240  2.39  0.  0.
241  2.40  0.  0.
242  2.41  0.  0.
243  2.42  0.  0.
244  2.43  0.  0.
245  2.44  0.  0.
246  2.45  0.  0.
247  2.46  0.  0.