Sn    ONCVPSP-4.0.1  r_core=   2.26172   2.61090   1.85654   2.00668
50.0000     14.0000      220201    zatom,zion,pspd
8      11   3     4   600     0    pspcod,pspxc,lmax,lloc,mmax,r2well
5.99000000  6.50000000  0.00000000    rchrg fchrg qchrg
2     2     2     1     0    nproj
1     1           extension_switch
0                         7.4920073414371E+00  1.1709663846960E+00
1  0.0000000000000E+00 -4.5042469754009E-11  7.2889111413232E-11
2  1.0000000000000E-02  3.0913543676701E-02 -2.1898571358210E-02
3  2.0000000000000E-02  6.1754888818765E-02 -4.3688252971553E-02
4  3.0000000000000E-02  9.2452227630657E-02 -6.5260765434647E-02
5  4.0000000000000E-02  1.2293453161420E-01 -8.6509046566985E-02
6  5.0000000000000E-02  1.5313193577653E-01 -1.0732785140856E-01
7  6.0000000000000E-02  1.8297611634104E-01 -1.2761434192689E-01
8  7.0000000000000E-02  2.1240065984852E-01 -1.4726866309155E-01
9  8.0000000000000E-02  2.4134142158093E-01 -1.6619450204530E-01
10  9.0000000000000E-02  2.6973687129580E-01 -1.8429962719118E-01
11  1.0000000000000E-01  2.9752842432608E-01 -2.0149640412271E-01
12  1.1000000000000E-01  3.2466075617697E-01 -2.1770228544836E-01
13  1.2000000000000E-01  3.5108209883764E-01 -2.3284027170165E-01
14  1.3000000000000E-01  3.7674451712237E-01 -2.4683934068364E-01
15  1.4000000000000E-01  4.0160416346058E-01 -2.5963484275457E-01
16  1.5000000000000E-01  4.2562150966894E-01 -2.7116885977510E-01
17  1.6000000000000E-01  4.4876155436057E-01 -2.8139052559408E-01
18  1.7000000000000E-01  4.7099400477552E-01 -2.9025630618794E-01
19  1.8000000000000E-01  4.9229343195222E-01 -2.9773023777598E-01
20  1.9000000000000E-01  5.1263939830220E-01 -3.0378412146458E-01
21  2.0000000000000E-01  5.3201655679695E-01 -3.0839767321046E-01
22  2.1000000000000E-01  5.5041472112863E-01 -3.1155862813810E-01
23  2.2000000000000E-01  5.6782890636178E-01 -3.1326279849670E-01
24  2.3000000000000E-01  5.8425933975257E-01 -3.1351408479808E-01
25  2.4000000000000E-01  5.9971144157349E-01 -3.1232443993568E-01
26  2.5000000000000E-01  6.1419577594466E-01 -3.0971378634616E-01
27  2.6000000000000E-01  6.2772797183635E-01 -3.0570988653740E-01
28  2.7000000000000E-01  6.4032861457125E-01 -3.0034816756793E-01
29  2.8000000000000E-01  6.5202310831762E-01 -2.9367150032271E-01
30  2.9000000000000E-01  6.6284151022523E-01 -2.8572993468649E-01
31  3.0000000000000E-01  6.7281833701455E-01 -2.7658039196761E-01
32  3.1000000000000E-01  6.8199234498403E-01 -2.6628631617081E-01
33  3.2000000000000E-01  6.9040628455134E-01 -2.5491728595603E-01
34  3.3000000000000E-01  6.9810663058926E-01 -2.4254858934976E-01
35  3.4000000000000E-01  7.0514328995695E-01 -2.2926076349511E-01
36  3.5000000000000E-01  7.1156928775980E-01 -2.1513910193555E-01
37  3.6000000000000E-01  7.1744043399678E-01 -2.0027313212317E-01
38  3.7000000000000E-01  7.2281497237143E-01 -1.8475606602500E-01
39  3.8000000000000E-01  7.2775321315123E-01 -1.6868422686905E-01
40  3.9000000000000E-01  7.3231715205931E-01 -1.5215645522393E-01
41  4.0000000000000E-01  7.3657007727148E-01 -1.3527349774184E-01
42  4.1000000000000E-01  7.4057616667028E-01 -1.1813738201329E-01
43  4.2000000000000E-01  7.4440007757524E-01 -1.0085078108163E-01
44  4.3000000000000E-01  7.4810653122436E-01 -8.3516371247243E-02
45  4.4000000000000E-01  7.5175989432630E-01 -6.6236186852756E-02
46  4.5000000000000E-01  7.5542376003417E-01 -4.9110975782282E-02
47  4.6000000000000E-01  7.5916053071152E-01 -3.2239559429190E-02
48  4.7000000000000E-01  7.6303100486768E-01 -1.5718200887379E-02
49  4.8000000000000E-01  7.6709397063303E-01  3.6001489935268E-04
50  4.9000000000000E-01  7.7140580812597E-01  1.5905785336554E-02
51  5.0000000000000E-01  7.7602010303106E-01  3.0834175096035E-02
52  5.1000000000000E-01  7.8098727366231E-01  4.5065178202700E-02
53  5.2000000000000E-01  7.8635421372834E-01  5.8524253847229E-02
54  5.3000000000000E-01  7.9216395294506E-01  7.1142832604567E-02
55  5.4000000000000E-01  7.9845533755895E-01  8.2858789881659E-02
56  5.5000000000000E-01  8.0526273274920E-01  9.3616883580823E-02
57  5.6000000000000E-01  8.1261574877031E-01  1.0336915314612E-01
58  5.7000000000000E-01  8.2053899257945E-01  1.1207527735886E-01
59  5.8000000000000E-01  8.2905184656446E-01  1.1970288846376E-01
60  5.9000000000000E-01  8.3816827585047E-01  1.2622784043813E-01
61  6.0000000000000E-01  8.4789666551533E-01  1.3163442946185E-01
62  6.1000000000000E-01  8.5823968888816E-01  1.3591556490470E-01
63  6.2000000000000E-01  8.6919420794125E-01  1.3907288941793E-01
64  6.3000000000000E-01  8.8075120661477E-01  1.4111684699811E-01
65  6.4000000000000E-01  8.9289575773627E-01  1.4206669818153E-01
66  6.5000000000000E-01  9.0560702401517E-01  1.4195048182472E-01
67  6.6000000000000E-01  9.1885829340550E-01  1.4080492323029E-01
68  6.7000000000000E-01  9.3261704894037E-01  1.3867528868500E-01
69  6.8000000000000E-01  9.4684507294998E-01  1.3561518678702E-01
70  6.9000000000000E-01  9.6149858538121E-01  1.3168631725035E-01
71  7.0000000000000E-01  9.7652841574406E-01  1.2695816818420E-01
72  7.1000000000000E-01  9.9188020801741E-01  1.2150766315255E-01
73  7.2000000000000E-01  1.0074946576567E+00  1.1541875962132E-01
74  7.3000000000000E-01  1.0233077796585E+00  1.0878200069712E-01
75  7.4000000000000E-01  1.0392512064549E+00  1.0169402234925E-01
76  7.5000000000000E-01  1.0552525142317E+00  9.4257018585290E-02
77  7.6000000000000E-01  1.0712355760950E+00  8.6578167316767E-02
78  7.7000000000000E-01  1.0871209403450E+00  7.8769019904936E-02
79  7.8000000000000E-01  1.1028262319623E+00  7.0944857615195E-02
80  7.9000000000000E-01  1.1182665752649E+00  6.3224018430707E-02
81  8.0000000000000E-01  1.1333550355576E+00  5.5727197879894E-02
82  8.1000000000000E-01  1.1480030774735E+00  4.8576727717621E-02
83  8.2000000000000E-01  1.1621210375916E+00  4.1895836464137E-02
84  8.3000000000000E-01  1.1756186088171E+00  3.5807895948729E-02
85  8.4000000000000E-01  1.1884053339228E+00  3.0435658124881E-02
86  8.5000000000000E-01  1.2003911055791E+00  2.5900486520120E-02
87  8.6000000000000E-01  1.2114866701411E+00  2.2321586755432E-02
88  8.7000000000000E-01  1.2216041324182E+00  1.9815240615696E-02
89  8.8000000000000E-01  1.2306574586278E+00  1.8494048173536E-02
90  8.9000000000000E-01  1.2385629747170E+00  1.8466182463599E-02
91  9.0000000000000E-01  1.2452398572467E+00  1.9834661172802E-02
92  9.1000000000000E-01  1.2506106140489E+00  2.2696639753973E-02
93  9.2000000000000E-01  1.2546015519073E+00  2.7142730286059E-02
94  9.3000000000000E-01  1.2571432285608E+00  3.3256350293386E-02
95  9.4000000000000E-01  1.2581708864017E+00  4.1113105600481E-02
96  9.5000000000000E-01  1.2576248653206E+00  5.0780211137344E-02
97  9.6000000000000E-01  1.2554509922529E+00  6.2315953424348E-02
98  9.7000000000000E-01  1.2516009450925E+00  7.5769198256336E-02
99  9.8000000000000E-01  1.2460325887691E+00  9.1178946873554E-02
100  9.9000000000000E-01  1.2387102814261E+00  1.0857394365343E-01
101  1.0000000000000E+00  1.2296051487912E+00  1.2797233808361E-01
102  1.0100000000000E+00  1.2186953249993E+00  1.4938140348434E-01
103  1.0200000000000E+00  1.2059661583034E+00  1.7279731463884E-01
104  1.0300000000000E+00  1.1914103803003E+00  1.9820498616540E-01
105  1.0400000000000E+00  1.1750282374933E+00  2.2557797312630E-01
106  1.0500000000000E+00  1.1568275842206E+00  2.5487843501865E-01
107  1.0600000000000E+00  1.1368239361901E+00  2.8605716393174E-01
108  1.0700000000000E+00  1.1150404840809E+00  3.1905367728837E-01
109  1.0800000000000E+00  1.0915080668931E+00  3.5379637521381E-01
110  1.0900000000000E+00  1.0662651049549E+00  3.9020276219971E-01
111  1.1000000000000E+00  1.0393574927230E+00  4.2817973235266E-01
112  1.1100000000000E+00  1.0108384517419E+00  4.6762391713996E-01
113  1.1200000000000E+00  9.8076834435436E-01  5.0842209417295E-01
114  1.1300000000000E+00  9.4921444898210E-01  5.5045165519926E-01
115  1.1400000000000E+00  9.1625069801689E-01  5.9358113111788E-01
116  1.1500000000000E+00  8.8195737958033E-01  6.3767077147915E-01
117  1.1600000000000E+00  8.4642080462107E-01  6.8257317559733E-01
118  1.1700000000000E+00  8.0973294102248E-01  7.2813397207868E-01
119  1.1800000000000E+00  7.7199101658813E-01  7.7419254326411E-01
120  1.1900000000000E+00  7.3329709295777E-01  8.2058279079654E-01
121  1.2000000000000E+00  6.9375761268023E-01  8.6713393825753E-01
122  1.2100000000000E+00  6.5348292183105E-01  9.1367136657241E-01
123  1.2200000000000E+00  6.1258677071146E-01  9.6001747766251E-01
124  1.2300000000000E+00  5.7118579529878E-01  1.0059925816282E+00
125  1.2400000000000E+00  5.2939898223797E-01  1.0514158025771E+00
126  1.2500000000000E+00  4.8734712026661E-01  1.0961059980723E+00
127  1.2600000000000E+00  4.4515224105243E-01  1.1398826870623E+00
128  1.2700000000000E+00  4.0293705249151E-01  1.1825669810747E+00
129  1.2800000000000E+00  3.6082436756703E-01  1.2239825134030E+00
130  1.2900000000000E+00  3.1893653190173E-01  1.2639563609964E+00
131  1.3000000000000E+00  2.7739485315243E-01  1.3023199537749E+00
132  1.3100000000000E+00  2.3631903539142E-01  1.3389099661339E+00
133  1.3200000000000E+00  1.9582662159729E-01  1.3735691854776E+00
134  1.3300000000000E+00  1.5603244733746E-01  1.4061473527268E+00
135  1.3400000000000E+00  1.1704810866498E-01  1.4365019698839E+00
136  1.3500000000000E+00  7.8981447175895E-02  1.4644990699020E+00
137  1.3600000000000E+00  4.1936055077823E-02  1.4900139443056E+00
138  1.3700000000000E+00  6.0108030089379E-03  1.5129318242305E+00
139  1.3800000000000E+00 -2.8700606782425E-02  1.5331485108059E+00
140  1.3900000000000E+00 -6.2110059430988E-02  1.5505709510748E+00
141  1.4000000000000E+00 -9.4135416314136E-02  1.5651177559548E+00
142  1.4100000000000E+00 -1.2470087164435E-01  1.5767196570598E+00
143  1.4200000000000E+00 -1.5373727484731E-01  1.5853198995518E+00
144  1.4300000000000E+00 -1.8118241697730E-01  1.5908745685524E+00
145  1.4400000000000E+00 -2.0698127962935E-01  1.5933528470223E+00
146  1.4500000000000E+00 -2.3108624502757E-01  1.5927372034102E+00
147  1.4600000000000E+00 -2.5345726619459E-01  1.5890235077798E+00
148  1.4700000000000E+00 -2.7406199634081E-01  1.5822210755326E+00
149  1.4800000000000E+00 -2.9287587685068E-01  1.5723526382711E+00
150  1.4900000000000E+00 -3.0988218348626E-01  1.5594542417658E+00
151  1.5000000000000E+00 -3.2507203067211E-01  1.5435750714213E+00
152  1.5100000000000E+00 -3.3844433397254E-01  1.5247772060589E+00
153  1.5200000000000E+00 -3.5000573111687E-01  1.5031353012565E+00
154  1.5300000000000E+00 -3.5977046217093E-01  1.4787362039028E+00
155  1.5400000000000E+00 -3.6776020969286E-01  1.4516785000273E+00
156  1.5500000000000E+00 -3.7400389994489E-01  1.4220719983659E+00
157  1.5600000000000E+00 -3.7853746646032E-01  1.3900371525006E+00
158  1.5700000000000E+00 -3.8140357748436E-01  1.3557044247804E+00
159  1.5800000000000E+00 -3.8265132901719E-01  1.3192135955726E+00
160  1.5900000000000E+00 -3.8233590538716E-01  1.2807130217240E+00
161  1.6000000000000E+00 -3.8051820946862E-01  1.2403588484121E+00
162  1.6100000000000E+00 -3.7726446483357E-01  1.1983141788448E+00
163  1.6200000000000E+00 -3.7264579228582E-01  1.1547482065189E+00
164  1.6300000000000E+00 -3.6673776337081E-01  1.1098353149721E+00
165  1.6400000000000E+00 -3.5961993358292E-01  1.0637541501565E+00
166  1.6500000000000E+00 -3.5137535810356E-01  1.0166866707234E+00
167  1.6600000000000E+00 -3.4209009299699E-01  9.6881718164268E-01
168  1.6700000000000E+00 -3.3185268486705E-01  9.2033135667694E-01
169  1.6800000000000E+00 -3.2075365203444E-01  8.7141525529584E-01
170  1.6900000000000E+00 -3.0888496033288E-01  8.2225433964742E-01
171  1.7000000000000E+00 -2.9633949664103E-01  7.7303249720022E-01
172  1.7100000000000E+00 -2.8321054326687E-01  7.2393107463300E-01
173  1.7200000000000E+00 -2.6959125628157E-01  6.7512792847809E-01
174  1.7300000000000E+00 -2.5557415086131E-01  6.2679649792035E-01
175  1.7400000000000E+00 -2.4125059663802E-01  5.7910490501641E-01
176  1.7500000000000E+00 -2.2671032598409E-01  5.3221508743048E-01
177  1.7600000000000E+00 -2.1204095806257E-01  4.8628196858302E-01
178  1.7700000000000E+00 -1.9732754136332E-01  4.4145266987932E-01
179  1.7800000000000E+00 -1.8265211731827E-01  3.9786576942807E-01
180  1.7900000000000E+00 -1.6809330744566E-01  3.5565061137513E-01
181  1.8000000000000E+00 -1.5372592631608E-01  3.1492666967087E-01
182  1.8100000000000E+00 -1.3962062246143E-01  2.7580296975685E-01
183  1.8200000000000E+00 -1.2584354916402E-01  2.3837757130594E-01
184  1.8300000000000E+00 -1.1245606683354E-01  2.0273711460017E-01
185  1.8400000000000E+00 -9.9514478519256E-02  1.6895643302427E-01
186  1.8500000000000E+00 -8.7069801714236E-02  1.3709824278325E-01
187  1.8600000000000E+00 -7.5167566676404E-02  1.0721285604624E-01
188  1.8700000000000E+00 -6.3847706982991E-02  7.9338252476640E-02
189  1.8800000000000E+00 -5.3144569378537E-02  5.3500619050619E-02
190  1.8900000000000E+00 -4.3086936012906E-02  2.9714783936848E-02
191  1.9000000000000E+00 -3.3698002243183E-02  7.9842828609164E-03
192  1.9100000000000E+00 -2.4995396594579E-02 -1.1698474388418E-02
193  1.9200000000000E+00 -1.6991234930771E-02 -2.9351979318069E-02
194  1.9300000000000E+00 -9.6922097102623E-03 -4.5005334980025E-02
195  1.9400000000000E+00 -3.0997133578310E-03 -5.8697903579930E-02
196  1.9500000000000E+00  2.7900053684194E-03 -7.0478893904155E-02
197  1.9600000000000E+00  7.9856533309834E-03 -8.0406891357736E-02
198  1.9700000000000E+00  1.2500674794796E-02 -8.8549333731489E-02
199  1.9800000000000E+00  1.6353004734108E-02 -9.4981936165889E-02
200  1.9900000000000E+00  1.9564795518200E-02 -9.9788069019444E-02
201  2.0000000000000E+00  2.2162119000676E-02 -1.0305809267109E-01
202  2.0100000000000E+00  2.4174646181171E-02 -1.0488865352788E-01
203  2.0200000000000E+00  2.5635306732459E-02 -1.0538194570576E-01
204  2.0300000000000E+00  2.6579930803807E-02 -1.0464494305135E-01
205  2.0400000000000E+00  2.7046875615398E-02 -1.0278860635273E-01
206  2.0500000000000E+00  2.7076639442815E-02 -9.9927070726488E-02
207  2.0600000000000E+00  2.6711465646533E-02 -9.6176818221853E-02
208  2.0700000000000E+00  2.5994939469299E-02 -9.1655840829342E-02
209  2.0800000000000E+00  2.4971580344113E-02 -8.6482799072497E-02
210  2.0900000000000E+00  2.3686432476263E-02 -8.0776181389914E-02
211  2.1000000000000E+00  2.2184656465027E-02 -7.4653469516746E-02
212  2.1100000000000E+00  2.0511130326983E-02 -6.8230324313128E-02
213  2.1200000000000E+00  1.8710013996990E-02 -6.1619716367026E-02
214  2.1300000000000E+00  1.6824460120250E-02 -5.4931305538467E-02
215  2.1400000000000E+00  1.4896119009209E-02 -4.8270485217658E-02
216  2.1500000000000E+00  1.2964403065174E-02 -4.1737032308164E-02
217  2.1600000000000E+00  1.1062138287565E-02 -3.5417780733048E-02
218  2.1700000000000E+00  9.2216492127932E-03 -2.9396610849310E-02
219  2.1800000000000E+00  7.4783641663446E-03 -2.3760320355122E-02
220  2.1900000000000E+00  5.8636708474717E-03 -1.8586657468899E-02
221  2.2000000000000E+00  4.4055048057348E-03 -1.3945217210679E-02
222  2.2100000000000E+00  3.1279876306124E-03 -9.8967664406465E-03
223  2.2200000000000E+00  2.0512240337935E-03 -6.4928419876055E-03
224  2.2300000000000E+00  1.1915652350252E-03 -3.7768549426534E-03
225  2.2400000000000E+00  5.5654037006199E-04 -1.7679717466362E-03
226  2.2500000000000E+00  1.6533688120611E-04 -5.2697537550477E-04
227  2.2600000000000E+00  9.6039047692128E-06 -3.0786948784323E-05
228  2.2700000000000E+00 -8.4381875284373E-06  2.7014229823331E-05
229  2.2800000000000E+00  3.0477898074625E-06 -9.7293328645639E-06
230  2.29 -0.  0.
231  2.30 -0.  0.
232  2.31  0. -0.
233  2.32  0.  0.
234  2.33  0.  0.
235  2.34  0.  0.
236  2.35  0.  0.
237  2.36  0.  0.
238  2.37  0.  0.
239  2.38  0.  0.
240  2.39  0.  0.
241  2.40  0.  0.
242  2.41  0.  0.
243  2.42  0.  0.
244  2.43  0.  0.
245  2.44  0.  0.
246  2.45  0.  0.
247  2.46  0.  0.
248  2.47  0.  0.
249  2.48  0.  0.
250  2.49  0.  0.
251  2.50  0.  0.
252  2.51  0.  0.
253  2.52  0.  0.
254  2.53  0.  0.
255  2.54  0.  0.
256  2.55  0.  0.
257  2.56  0.  0.
258  2.57  0.  0.
259  2.58  0.  0.
260  2.59  0.  0.
261  2.60  0.  0.
262  2.61  0.  0.
263  2.62  0.  0.
264  2.63  0.  0.
265  2.64  0.  0.
266  2.65  0.  0.
267  2.66  0.  0.
268  2.67  0.  0.
269  2.68  0.  0.
270  2.69  0.  0.
271  2.70  0.  0.
272  2.71  0.  0.
273  2.72  0.  0.
274  2.73  0.  0.
275  2.74  0.  0.
276  2.75  0.  0.
277  2.76  0.  0.
278  2.77  0.  0.
279  2.78  0.  0.
280  2.79  0.  0.
281  2.80  0.  0.
282  2.81  0.  0.
283  2.82  0.  0.
284  2.83  0.  0.
285  2.84  0.  0.
286  2.85  0.  0.
287  2.86  0.  0.
288  2.87  0.  0.
289  2.88  0.  0.
290  2.89  0.  0.
291  2.90  0.  0.
292  2.91  0.  0.
293  2.92  0.  0.
294  2.93  0.  0.
295  2.94  0.  0.
296  2.95  0.  0.
297  2.96  0.  0.
298  2.97  0.  0.
299  2.98  0.  0.
300  2.99  0.  0.
301  3.00  0.  0.
302  3.01  0.  0.
303  3.02  0.  0.
304  3.03  0.  0.
305  3.04  0.  0.
306  3.05  0.  0.
307  3.06  0.  0.
308  3.07  0.  0.
309  3.08  0.  0.
310  3.09  0.  0.
311  3.10  0.  0.
312  3.11  0.  0.
313  3.12  0.  0.
314  3.13  0.  0.
315  3.14  0.  0.
316  3.15  0.  0.
317  3.16  0.  0.
318  3.17  0.  0.
319  3.18  0.  0.
320  3.19  0.  0.
321  3.20  0.  0.
322  3.21  0.  0.
323  3.22  0.  0.
324  3.23  0.  0.
325  3.24  0.  0.
326  3.25  0.  0.
327  3.26  0.  0.
328  3.27  0.  0.
329  3.28  0.  0.
330  3.29  0.  0.
331  3.30  0.  0.
332  3.31  0.  0.
333  3.32  0.  0.
334  3.33  0.  0.
335  3.34  0.  0.
336  3.35  0.  0.
337  3.36  0.  0.
338  3.37  0.  0.
339  3.38  0.  0.
340  3.39  0.  0.
341  3.40  0.  0.
342  3.41  0.  0.
343  3.42  0.  0.
344  3.43  0.  0.
345  3.44  0.  0.
346  3.45  0.  0.
347  3.46  0.  0.
348  3.47  0.  0.
349  3.48  0.  0.
350  3.49  0.  0.
351  3.50  0.  0.
352  3.51  0.  0.
353  3.52  0.  0.
354  3.53  0.  0.
355  3.54  0.  0.
356  3.55  0.  0.
357  3.56  0.  0.
358  3.57  0.  0.
359  3.58  0.  0.
360  3.59  0.  0.
361  3.60  0.  0.
362  3.61  0.  0.
363  3.62  0.  0.
364  3.63  0.  0.
365  3.64  0.  0.
366  3.65  0.  0.
367  3.66  0.  0.
368  3.67  0.  0.
369  3.68  0.  0.
370  3.69  0.  0.
371  3.70  0.  0.
372  3.71  0.  0.
373  3.72  0.  0.
374  3.73  0.  0.
375  3.74  0.  0.
376  3.75  0.  0.
377  3.76  0.  0.
378  3.77  0.  0.
379  3.78  0.  0.
380  3.79  0.  0.
381  3.80  0.  0.
382  3.81  0.  0.
383  3.82  0.  0.
384  3.83  0.  0.
385  3.84  0.  0.
386  3.85  0.  0.
387  3.86  0.  0.
388  3.87  0.  0.
389  3.88  0.  0.
390  3.89  0.  0.
391  3.90  0.  0.
392  3.91  0.  0.
393  3.92  0.  0.
394  3.93  0.  0.
395  3.94  0.  0.
396  3.95  0.  0.
397  3.96  0.  0.
398  3.97  0.  0.
399  3.98  0.  0.
400  3.99  0.  0.
401  4.00  0.  0.
402  4.01  0.  0.
403  4.02  0.  0.
404  4.03  0.  0.
405  4.04  0.  0.
406  4.05  0.  0.
407  4.06  0.  0.
408  4.07  0.  0.
409  4.08  0.  0.
410  4.09  0.  0.
411  4.10  0.  0.
412  4.11  0.  0.
413  4.12  0.  0.
414  4.13  0.  0.
415  4.14  0.  0.
416  4.15  0.  0.
417  4.16  0.  0.
418  4.17  0.  0.
419  4.18  0.  0.
420  4.19  0.  0.
421  4.20  0.  0.
422  4.21  0.  0.
423  4.22  0.  0.
424  4.23  0.  0.
425  4.24  0.  0.
426  4.25  0.  0.
427  4.26  0.  0.
428  4.27  0.  0.
429  4.28  0.  0.
430  4.29  0.  0.
431  4.30  0.  0.
432  4.31  0.  0.
433  4.32  0.  0.
434  4.33  0.  0.
435  4.34  0.  0.
436  4.35  0.  0.
437  4.36  0.  0.
438  4.37  0.  0.
439  4.38  0.  0.
440  4.39  0.  0.
441  4.40  0.  0.
442  4.41  0.  0.
443  4.42  0.  0.
444  4.43  0.  0.
445  4.44  0.  0.
446  4.45  0.  0.
447  4.46  0.  0.
448  4.47  0.  0.
449  4.48  0.  0.
450  4.49  0.  0.
451  4.50  0.  0.
452  4.51  0.  0.
453  4.52  0.  0.
454  4.53  0.  0.
455  4.54  0.  0.
456  4.55  0.  0.
457  4.56  0.  0.
458  4.57  0.  0.
459  4.58  0.  0.
460  4.59  0.  0.
461  4.60  0.  0.
462  4.61  0.  0.
463  4.62  0.  0.
464  4.63  0.  0.
465  4.64  0.  0.
466  4.65  0.  0.
467  4.66  0.  0.
468  4.67  0.  0.
469  4.68  0.  0.
470  4.69  0.  0.
471  4.70  0.  0.
472  4.71  0.  0.
473  4.72  0.  0.
474  4.73  0.  0.
475  4.74  0.  0.
476  4.75  0.  0.
477  4.76  0.  0.
478  4.77  0.  0.
479  4.78  0.  0.
480  4.79  0.  0.
481  4.80  0.  0.
482  4.81  0.  0.
483  4.82  0.  0.
484  4.83  0.  0.
485  4.84  0.  0.
486  4.85  0.  0.
487  4.86  0.  0.
488  4.87  0.  0.
489  4.88  0.  0.
490  4.89  0.  0.
491  4.90  0.  0.
492  4.91  0.  0.
493  4.92  0.  0.
494  4.93  0.  0.
495  4.94  0.  0.
496  4.95  0.  0.
497  4.96  0.  0.
498  4.97  0.  0.
499  4.98  0.  0.
500  4.99  0.  0.
501  5.00  0.  0.
502  5.01  0.  0.
503  5.02  0.  0.
504  5.03  0.  0.
505  5.04  0.  0.
506  5.05  0.  0.
507  5.06  0.  0.
508  5.07  0.  0.
509  5.08  0.  0.
510  5.09  0.  0.
511  5.10  0.  0.
512  5.11  0.  0.
513  5.12  0.  0.
514  5.13  0.  0.
515  5.14  0.  0.
516  5.15  0.  0.
517  5.16  0.  0.
518  5.17  0.  0.
519  5.18  0.  0.
520  5.19  0.  0.
521  5.20  0.  0.
522  5.21  0.  0.
523  5.22  0.  0.
524  5.23  0.  0.
525  5.24  0.  0.
526  5.25  0.  0.
527  5.26  0.  0.
528  5.27  0.  0.
529  5.28  0.  0.
530  5.29  0.  0.
531  5.30  0.  0.
532  5.31  0.  0.
533  5.32  0.  0.
534  5.33  0.  0.
535  5.34  0.  0.
536  5.35  0.  0.
537  5.36  0.  0.
538  5.37  0.  0.
539  5.38  0.  0.
540  5.39  0.  0.
541  5.40  0.  0.
542  5.41  0.  0.
543  5.42  0.  0.
544  5.43  0.  0.
545  5.44  0.  0.
546  5.45  0.  0.
547  5.46  0.  0.
548  5.47  0.  0.
549  5.48  0.  0.
550  5.49  0.  0.
551  5.50  0.  0.
552  5.51  0.  0.
553  5.52  0.  0.
554  5.53  0.  0.
555  5.54  0.  0.
556  5.55  0.  0.
557  5.56  0.  0.
558  5.57  0.  0.
559  5.58  0.  0.
560  5.59  0.  0.
561  5.60  0.  0.
562  5.61  0.  0.
563  5.62  0.  0.
564  5.63  0.  0.
565  5.64  0.  0.
566  5.65  0.  0.
567  5.66  0.  0.
568  5.67  0.  0.
569  5.68  0.  0.
570  5.69  0.  0.
571  5.70  0.  0.
572  5.71  0.  0.
573  5.72  0.  0.
574  5.73  0.  0.
575  5.74  0.  0.
576  5.75  0.  0.
577  5.76  0.  0.
578  5.77  0.  0.
579  5.78  0.  0.
580  5.79  0.  0.
581  5.80  0.  0.
582  5.81  0.  0.
583  5.82  0.  0.
584  5.83  0.  0.
585  5.84  0.  0.
586  5.85  0.  0.
587  5.86  0.  0.
588  5.87  0.  0.
589  5.88  0.  0.
590  5.89  0.  0.
591  5.90  0.  0.
592  5.91  0.  0.
593  5.92  0.  0.
594  5.93  0.  0.
595  5.94  0.  0.
596  5.95  0.  0.
597  5.96  0.  0.
598  5.97  0.  0.
599  5.98  0.  0.
600  5.99  0.  0.
1                         4.0626691418442E+00  6.5002905732655E-01
1  0.0000000000000E+00  5.0402584883535E-11 -9.2965499881581E-11
2  1.0000000000000E-02  4.4343631228243E-04 -3.6404523162671E-04
3  2.0000000000000E-02  1.7724715536120E-03 -1.4542870703445E-03
4  3.0000000000000E-02  3.9832902180479E-03 -3.2650536612896E-03
5  4.0000000000000E-02  7.0695517049970E-03 -5.7869242436148E-03
6  5.0000000000000E-02  1.1022418092003E-02 -9.0067774779500E-03
7  6.0000000000000E-02  1.5830592834707E-02 -1.2907858768768E-02
8  7.0000000000000E-02  2.1480370212993E-02 -1.7469866247413E-02
9  8.0000000000000E-02  2.7955695291917E-02 -2.2669054988587E-02
10  9.0000000000000E-02  3.5238234116683E-02 -2.8478358942122E-02
11  1.0000000000000E-01  4.3307453812728E-02 -3.4867529973188E-02
12  1.1000000000000E-01  5.2140712215243E-02 -4.1803293318161E-02
13  1.2000000000000E-01  6.1713356607336E-02 -4.9249518680587E-02
14  1.3000000000000E-01  7.1998831102749E-02 -5.7167406112397E-02
15  1.4000000000000E-01  8.2968792167775E-02 -6.5515685750147E-02
16  1.5000000000000E-01  9.4593231737931E-02 -7.4250830404917E-02
17  1.6000000000000E-01  1.0684060734829E-01 -8.3327279937902E-02
18  1.7000000000000E-01  1.1967797866222E-01 -9.2697676292104E-02
19  1.8000000000000E-01  1.3307114975189E-01 -1.0231310799405E-01
20  1.9000000000000E-01  1.4698481645530E-01 -1.1212336288850E-01
21  2.0000000000000E-01  1.6138271810913E-01 -1.2207718782383E-01
22  2.1000000000000E-01  1.7622779293421E-01 -1.3212255396673E-01
23  2.2000000000000E-01  1.9148233633125E-01 -1.4220692639146E-01
24  2.3000000000000E-01  2.0710816132874E-01 -1.5227753656268E-01
25  2.4000000000000E-01  2.2306676041252E-01 -1.6228165631059E-01
26  2.5000000000000E-01  2.3931946795755E-01 -1.7216687188355E-01
27  2.6000000000000E-01  2.5582762247745E-01 -1.8188135665721E-01
28  2.7000000000000E-01  2.7255272790541E-01 -1.9137414107910E-01
29  2.8000000000000E-01  2.8945661312234E-01 -2.0059537843495E-01
30  2.9000000000000E-01  3.0650158895390E-01 -2.0949660503736E-01
31  3.0000000000000E-01  3.2365060186721E-01 -2.1803099345842E-01
32  3.1000000000000E-01  3.4086738361147E-01 -2.2615359745601E-01
33  3.2000000000000E-01  3.5811659606328E-01 -2.3382158727831E-01
34  3.3000000000000E-01  3.7536397055784E-01 -2.4099447407276E-01
35  3.4000000000000E-01  3.9257644101115E-01 -2.4763432217391E-01
36  3.5000000000000E-01  4.0972227016579E-01 -2.5370594809910E-01
37  3.6000000000000E-01  4.2677116832336E-01 -2.5917710514194E-01
38  3.7000000000000E-01  4.4369440396099E-01 -2.6401865252045E-01
39  3.8000000000000E-01  4.6046490566625E-01 -2.6820470810897E-01
40  3.9000000000000E-01  4.7705735486501E-01 -2.7171278386156E-01
41  4.0000000000000E-01  4.9344826885985E-01 -2.7452390311727E-01
42  4.1000000000000E-01  5.0961607374224E-01 -2.7662269906597E-01
43  4.2000000000000E-01  5.2554116678968E-01 -2.7799749374552E-01
44  4.3000000000000E-01  5.4120596800977E-01 -2.7864035703772E-01
45  4.4000000000000E-01  5.5659496054527E-01 -2.7854714523013E-01
46  4.5000000000000E-01  5.7169471970873E-01 -2.7771751881404E-01
47  4.6000000000000E-01  5.8649393047127E-01 -2.7615493929466E-01
48  4.7000000000000E-01  6.0098339328697E-01 -2.7386664489736E-01
49  4.8000000000000E-01  6.1515601819327E-01 -2.7086360516327E-01
50  4.9000000000000E-01  6.2900680718626E-01 -2.6716045453848E-01
51  5.0000000000000E-01  6.4253282493014E-01 -2.6277540517188E-01
52  5.1000000000000E-01  6.5573315791952E-01 -2.5773013924854E-01
53  5.2000000000000E-01  6.6860886227347E-01 -2.5204968129566E-01
54  5.3000000000000E-01  6.8116290039990E-01 -2.4576225100839E-01
55  5.4000000000000E-01  6.9340006682750E-01 -2.3889909725043E-01
56  5.5000000000000E-01  7.0532690356101E-01 -2.3149431399031E-01
57  5.6000000000000E-01  7.1695160537191E-01 -2.2358463903742E-01
58  5.7000000000000E-01  7.2828391549249E-01 -2.1520923654112E-01
59  5.8000000000000E-01  7.3933501223435E-01 -2.0640946431254E-01
60  5.9000000000000E-01  7.5011738710409E-01 -1.9722862711974E-01
61  6.0000000000000E-01  7.6064471503771E-01 -1.8771171719320E-01
62  6.1000000000000E-01  7.7093171742209E-01 -1.7790514325980E-01
63  6.2000000000000E-01  7.8099401861476E-01 -1.6785644949808E-01
64  6.3000000000000E-01  7.9084799671393E-01 -1.5761402587619E-01
65  6.4000000000000E-01  8.0051062936742E-01 -1.4722681139546E-01
66  6.5000000000000E-01  8.0999933544223E-01 -1.3674399181694E-01
67  6.6000000000000E-01  8.1933181340589E-01 -1.2621469349466E-01
68  6.7000000000000E-01  8.2852587729603E-01 -1.1568767497816E-01
69  6.8000000000000E-01  8.3759929117534E-01 -1.0521101807687E-01
70  6.9000000000000E-01  8.4656960298588E-01 -9.4831820100709E-02
71  7.0000000000000E-01  8.5545397872860E-01 -8.4595889003982E-02
72  7.1000000000000E-01  8.6426903790113E-01 -7.4547443163240E-02
73  7.2000000000000E-01  8.7303069112960E-01 -6.4728817514549E-02
74  7.3000000000000E-01  8.8175398092776E-01 -5.5180177760668E-02
75  7.4000000000000E-01  8.9045292650944E-01 -4.5939244334605E-02
76  7.5000000000000E-01  8.9914037356821E-01 -3.7041027772657E-02
77  7.6000000000000E-01  9.0782784992111E-01 -2.8517577107198E-02
78  7.7000000000000E-01  9.1652542789091E-01 -2.0397742837681E-02
79  7.8000000000000E-01  9.2524159427483E-01 -1.2706955977293E-02
80  7.9000000000000E-01  9.3398312871588E-01 -5.4670246029120E-03
81  8.0000000000000E-01  9.4275499125631E-01  1.3040507423145E-03
82  8.1000000000000E-01  9.5156021981222E-01  7.5922415312675E-03
83  8.2000000000000E-01  9.6039983826271E-01  1.3387634451975E-02
84  8.3000000000000E-01  9.6927277579756E-01  1.8684552257821E-02
85  8.4000000000000E-01  9.7817579811395E-01  2.3481651312219E-02
86  8.5000000000000E-01  9.8710345099540E-01  2.7781994987109E-02
87  8.6000000000000E-01  9.9604801674536E-01  3.1593102196403E-02
88  8.7000000000000E-01  1.0049994838838E+00  3.4926970472991E-02
89  8.8000000000000E-01  1.0139455304481E+00  3.7800073130145E-02
90  8.9000000000000E-01  1.0228715211707E+00  4.0233330184579E-02
91  9.0000000000000E-01  1.0317605187325E+00  4.2252052858456E-02
92  9.1000000000000E-01  1.0405933092194E+00  4.3885861620377E-02
93  9.2000000000000E-01  1.0493484418324E+00  4.5168577870297E-02
94  9.3000000000000E-01  1.0580022828257E+00  4.6138089519358E-02
95  9.4000000000000E-01  1.0665290835711E+00  4.6836190862397E-02
96  9.5000000000000E-01  1.0749010625669E+00  4.7308397287183E-02
97  9.6000000000000E-01  1.0830885011354E+00  4.7603735509761E-02
98  9.7000000000000E-01  1.0910598524736E+00  4.7774510168561E-02
99  9.8000000000000E-01  1.0987818636451E+00  4.7876047750697E-02
100  9.9000000000000E-01  1.1062197100308E+00  4.7966418960839E-02
101  1.0000000000000E+00  1.1133371416762E+00  4.8106140775896E-02
102  1.0100000000000E+00  1.1200966409084E+00  4.8357859556261E-02
103  1.0200000000000E+00  1.1264595905245E+00  4.8786016706177E-02
104  1.0300000000000E+00  1.1323864517882E+00  4.9456498490705E-02
105  1.0400000000000E+00  1.1378369514097E+00  5.0436271724506E-02
106  1.0500000000000E+00  1.1427702766265E+00  5.1793007147120E-02
107  1.0600000000000E+00  1.1471452774473E+00  5.3594692390355E-02
108  1.0700000000000E+00  1.1509206750730E+00  5.5909236524677E-02
109  1.0800000000000E+00  1.1540552754629E+00  5.8804068243198E-02
110  1.0900000000000E+00  1.1565081869754E+00  6.2345729802728E-02
111  1.1000000000000E+00  1.1582390409763E+00  6.6599468891624E-02
112  1.1100000000000E+00  1.1592082142831E+00  7.1628830632785E-02
113  1.1200000000000E+00  1.1593770522841E+00  7.7495251957290E-02
114  1.1300000000000E+00  1.1587080915619E+00  8.4257660599181E-02
115  1.1400000000000E+00  1.1571652808336E+00  9.1972080964589E-02