Sn    ONCVPSP-4.0.1  r_core=   1.30444   1.30444   1.50583   1.70739
50.0000     22.0000      220201    zatom,zion,pspd
8      11   3     4   600     0    pspcod,pspxc,lmax,lloc,mmax,r2well
5.99000000  3.50000000  0.00000000    rchrg fchrg qchrg
2     2     2     2     0    nproj
1     1           extension_switch
0                         9.7158080782764E+00 -6.5899304458294E-01
1  0.0000000000000E+00 -1.7525514373062E-10  3.6800366032264E-08
2  1.0000000000000E-02  8.2929593341109E-02  4.0306412035885E-02
3  2.0000000000000E-02  1.6565265311638E-01  8.0790321632135E-02
4  3.0000000000000E-02  2.4796325611358E-01  1.2161688880147E-01
5  4.0000000000000E-02  3.2965669722505E-01  1.6292696620789E-01
6  5.0000000000000E-02  4.1053009204076E-01  2.0482585503564E-01
7  6.0000000000000E-02  4.9038297182206E-01  2.4737312505890E-01
8  7.0000000000000E-02  5.6901786853116E-01  2.9057380897908E-01
9  8.0000000000000E-02  6.4624088776668E-01  3.3437124429654E-01
10  9.0000000000000E-02  7.2186226766390E-01  3.7864179179551E-01
11  1.0000000000000E-01  7.9569692205263E-01  4.2319160928638E-01
12  1.1000000000000E-01  8.6756496641853E-01  4.6775560387225E-01
13  1.2000000000000E-01  9.3729222547710E-01  5.1199862712083E-01
14  1.3000000000000E-01  1.0047107214337E+00  5.5551891665603E-01
15  1.4000000000000E-01  1.0696591422606E+00  5.9785372641998E-01
16  1.5000000000000E-01  1.1319832895629E+00  6.3848702779301E-01
17  1.6000000000000E-01  1.1915365058211E+00  6.7685910647025E-01
18  1.7000000000000E-01  1.2481800809833E+00  7.1237782698526E-01
19  1.8000000000000E-01  1.3017836385244E+00  7.4443128944753E-01
20  1.9000000000000E-01  1.3522255011889E+00  7.7240156268311E-01
21  2.0000000000000E-01  1.3993930366891E+00  7.9567914562702E-01
22  2.1000000000000E-01  1.4431829836248E+00  8.1367778539957E-01
23  2.2000000000000E-01  1.4835017578418E+00  8.2584926666991E-01
24  2.3000000000000E-01  1.5202657393374E+00  8.3169778308770E-01
25  2.4000000000000E-01  1.5534015396675E+00  8.3079350791428E-01
26  2.5000000000000E-01  1.5828462496060E+00  8.2278499741065E-01
27  2.6000000000000E-01  1.6085476665656E+00  8.0741008668550E-01
28  2.7000000000000E-01  1.6304645010134E+00  7.8450497296546E-01
29  2.8000000000000E-01  1.6485665608138E+00  7.5401122477486E-01
30  2.9000000000000E-01  1.6628349121178E+00  7.1598050623783E-01
31  3.0000000000000E-01  1.6732620150976E+00  6.7057686238676E-01
32  3.1000000000000E-01  1.6798518325161E+00  6.1807647255557E-01
33  3.2000000000000E-01  1.6826199088286E+00  5.5886484310990E-01
34  3.3000000000000E-01  1.6815934172547E+00  4.9343147628253E-01
35  3.4000000000000E-01  1.6768111720424E+00  4.2236211705783E-01
36  3.5000000000000E-01  1.6683236029842E+00  3.4632874319803E-01
37  3.6000000000000E-01  1.6561926891481E+00  2.6607752297256E-01
38  3.7000000000000E-01  1.6404918487624E+00  1.8241501937276E-01
39  3.8000000000000E-01  1.6213057822509E+00  9.6192967115667E-02
40  3.9000000000000E-01  1.5987302655598E+00  8.2919882730414E-03
41  4.0000000000000E-01  1.5728718911511E+00 -8.0395357193524E-02
42  4.1000000000000E-01  1.5438477543648E+00 -1.6898176922769E-01
43  4.2000000000000E-01  1.5117850832699E+00 -2.5660222714805E-01
44  4.3000000000000E-01  1.4768208106289E+00 -3.4243040519674E-01
45  4.4000000000000E-01  1.4391010871888E+00 -4.2569407066890E-01
46  4.5000000000000E-01  1.3987807361750E+00 -5.0568907406263E-01
47  4.6000000000000E-01  1.3560226495900E+00 -5.8179157398729E-01
48  4.7000000000000E-01  1.3109971276979E+00 -6.5346818248216E-01
49  4.8000000000000E-01  1.2638811638944E+00 -7.2028376791811E-01
50  4.9000000000000E-01  1.2148576780006E+00 -7.8190671155181E-01
51  5.0000000000000E-01  1.1641147018639E+00 -8.3811147863326E-01
52  5.1000000000000E-01  1.1118445219870E+00 -8.8877843412645E-01
53  5.2000000000000E-01  1.0582427847054E+00 -9.3389090485222E-01
54  5.3000000000000E-01  1.0035075701928E+00 -9.7352956238012E-01
55  5.4000000000000E-01  9.4783844226440E-01 -1.0078642724097E+00
56  5.5000000000000E-01  8.9143548155275E-01 -1.0371436248418E+00
57  5.6000000000000E-01  8.3449831014139E-01 -1.0616824224266E+00
58  5.7000000000000E-01  7.7722511613640E-01 -1.0818474630907E+00
59  5.8000000000000E-01  7.1981168692610E-01 -1.0980420002164E+00
60  5.9000000000000E-01  6.6245046001485E-01 -1.1106893049045E+00
61  6.0000000000000E-01  6.0532960031022E-01 -1.1202157834276E+00
62  6.1000000000000E-01  5.4863211258950E-01 -1.1270341207925E+00
63  6.2000000000000E-01  4.9253499757066E-01 -1.1315269269371E+00
64  6.3000000000000E-01  4.3720845956607E-01 -1.1340313552914E+00
65  6.4000000000000E-01  3.8281517310941E-01 -1.1348251442137E+00
66  6.5000000000000E-01  3.2950961522598E-01 -1.1341145004904E+00
67  6.6000000000000E-01  2.7743746917460E-01 -1.1320242012826E+00
68  6.7000000000000E-01  2.2673510453983E-01 -1.1285902375458E+00
69  6.8000000000000E-01  1.7752913751317E-01 -1.1237552592423E+00
70  6.9000000000000E-01  1.2993607408945E-01 -1.1173670120825E+00
71  7.0000000000000E-01  8.4062037741200E-02 -1.1091798787494E+00
72  7.1000000000000E-01  4.0002581941232E-02 -1.0988595564577E+00
73  7.2000000000000E-01 -2.1574132952802E-03 -1.0859908192734E+00
74  7.3000000000000E-01 -4.2343762858511E-02 -1.0700882299767E+00
75  7.4000000000000E-01 -8.0492919131081E-02 -1.0506095845166E+00
76  7.5000000000000E-01 -1.1655183993977E-01 -1.0269717944005E+00
77  7.6000000000000E-01 -1.5047778708727E-01 -9.9856884073898E-01
78  7.7000000000000E-01 -1.8223806156332E-01 -9.6479137004122E-01
79  7.8000000000000E-01 -2.1180968229485E-01 -9.2504744799767E-01
80  7.9000000000000E-01 -2.3917901591490E-01 -8.7878394491808E-01
81  8.0000000000000E-01 -2.6434136549859E-01 -8.2550799649990E-01
82  8.1000000000000E-01 -2.8730052652133E-01 -7.6480796715825E-01
83  8.2000000000000E-01 -3.0806831843347E-01 -6.9637334091364E-01
84  8.3000000000000E-01 -3.2666410021606E-01 -6.2001297711589E-01
85  8.4000000000000E-01 -3.4311427808340E-01 -5.3567119503324E-01
86  8.5000000000000E-01 -3.5745181313779E-01 -4.4344119214850E-01
87  8.6000000000000E-01 -3.6971573626627E-01 -3.4357535510491E-01
88  8.7000000000000E-01 -3.7995067691300E-01 -2.3649208853224E-01
89  8.8000000000000E-01 -3.8820641157841E-01 -1.2277886402122E-01
90  8.9000000000000E-01 -3.9453743700610E-01 -3.1912775887901E-03
91  9.0000000000000E-01 -3.9900257204218E-01  1.2135200288549E-01
92  9.1000000000000E-01 -4.0166459111123E-01  2.4977842073691E-01
93  9.2000000000000E-01 -4.0258989117384E-01  3.8087476399644E-01
94  9.3000000000000E-01 -4.0184819293699E-01  5.1330426842870E-01
95  9.4000000000000E-01 -3.9951227600693E-01  6.4562731086130E-01
96  9.5000000000000E-01 -3.9565774662953E-01  7.7632531990139E-01
97  9.6000000000000E-01 -3.9036283567976E-01  9.0382744462064E-01
98  9.7000000000000E-01 -3.8370822366372E-01  1.0265394446299E+00
99  9.8000000000000E-01 -3.7577688870375E-01  1.1428741992032E+00
100  9.9000000000000E-01 -3.6665397280882E-01  1.2512831804740E+00
101  1.0000000000000E+00 -3.5642666120362E-01  1.3502881977667E+00
102  1.0100000000000E+00 -3.4518406911406E-01  1.4385126979429E+00
103  1.0200000000000E+00 -3.3301713019091E-01  1.5147119010073E+00
104  1.0300000000000E+00 -3.2001848070402E-01  1.5778010615767E+00
105  1.0400000000000E+00 -3.0628233375673E-01  1.6268811750935E+00
106  1.0500000000000E+00 -2.9190433804952E-01  1.6612614924367E+00
107  1.0600000000000E+00 -2.7698141615965E-01  1.6804782671412E+00
108  1.0700000000000E+00 -2.6161157788421E-01  1.6843092343224E+00
109  1.0800000000000E+00 -2.4589370490737E-01  1.6727834083365E+00
110  1.0900000000000E+00 -2.2992730387824E-01  1.6461858850952E+00
111  1.1000000000000E+00 -2.1381222590333E-01  1.6050574425215E+00
112  1.1100000000000E+00 -1.9764835144774E-01  1.5501888469627E+00
113  1.1200000000000E+00 -1.8153524066962E-01  1.4826098909020E+00
114  1.1300000000000E+00 -1.6557175026950E-01  1.4035733067234E+00
115  1.1400000000000E+00 -1.4985561897787E-01  1.3145338180615E+00
116  1.1500000000000E+00 -1.3448302482241E-01  1.2171227036528E+00
117  1.1600000000000E+00 -1.1954811826642E-01  1.1131183537984E+00
118  1.1700000000000E+00 -1.0514253618672E-01  1.0044133961714E+00
119  1.1800000000000E+00 -9.1354902422367E-02  8.9297905140267E-01
120  1.1900000000000E+00 -7.8270321271437E-02  7.8082744935704E-01
121  1.2000000000000E+00 -6.5969870811539E-02  6.6997269118038E-01
122  1.2100000000000E+00 -5.4530103266977E-02  5.6239147955972E-01
123  1.2200000000000E+00 -4.4022559278515E-02  4.5998418613172E-01
124  1.2300000000000E+00 -3.4513307204051E-02  3.6453694461829E-01
125  1.2400000000000E+00 -2.6062567563737E-02  2.7768386641803E-01
126  1.2500000000000E+00 -1.8726007595836E-02  2.0077747253611E-01
127  1.2600000000000E+00 -1.2550408336371E-02  1.3504062048054E-01
128  1.2700000000000E+00 -7.5740120303858E-03  8.1563174267531E-02
129  1.2800000000000E+00 -3.8289076235158E-03  4.1156604171500E-02
130  1.2900000000000E+00 -1.3384790567347E-03  1.4322623743698E-02
131  1.3000000000000E+00 -1.4319699217469E-04  1.5210815404041E-03
132  1.3100000000000E+00  1.1817705034428E-05 -1.2492738807025E-04
133  1.3200000000000E+00 -2.7800684419247E-07  2.9495146681037E-06
134  1.33 -0.  0.
135  1.34  0.  0.
136  1.35  0.  0.
137  1.36  0.  0.
138  1.37  0.  0.
139  1.38  0.  0.
140  1.39  0.  0.
141  1.40  0.  0.
142  1.41  0.  0.
143  1.42  0.  0.
144  1.43  0.  0.
145  1.44  0.  0.
146  1.45  0.  0.
147  1.46  0.  0.
148  1.47  0.  0.
149  1.48  0.  0.
150  1.49  0.  0.
151  1.50  0.  0.
152  1.51  0.  0.
153  1.52  0.  0.
154  1.53  0.  0.
155  1.54  0.  0.
156  1.55  0.  0.
157  1.56  0.  0.
158  1.57  0.  0.
159  1.58  0.  0.
160  1.59  0.  0.
161  1.60  0.  0.
162  1.61  0.  0.
163  1.62  0.  0.
164  1.63  0.  0.
165  1.64  0.  0.
166  1.65  0.  0.
167  1.66  0.  0.
168  1.67  0.  0.
169  1.68  0.  0.
170  1.69  0.  0.
171  1.70  0.  0.
172  1.71  0.  0.
173  1.72  0.  0.
174  1.73  0.  0.
175  1.74  0.  0.
176  1.75  0.  0.
177  1.76  0.  0.
178  1.77  0.  0.
179  1.78  0.  0.
180  1.79  0.  0.
181  1.80  0.  0.
182  1.81  0.  0.
183  1.82  0.  0.
184  1.83  0.  0.
185  1.84  0.  0.
186  1.85  0.  0.
187  1.86  0.  0.
188  1.87  0.  0.
189  1.88  0.  0.
190  1.89  0.  0.
191  1.90  0.  0.
192  1.91  0.  0.
193  1.92  0.  0.
194  1.93  0.  0.
195  1.94  0.  0.
196  1.95  0.  0.
197  1.96  0.  0.
198  1.97  0.  0.
199  1.98  0.  0.
200  1.99  0.  0.
201  2.00  0.  0.
202  2.01  0.  0.
203  2.02  0.  0.
204  2.03  0.  0.
205  2.04  0.  0.
206  2.05  0.  0.
207  2.06  0.  0.
208  2.07  0.  0.
209  2.08  0.  0.
210  2.09  0.  0.
211  2.10  0.  0.
212  2.11  0.  0.
213  2.12  0.  0.
214  2.13  0.  0.
215  2.14  0.  0.
216  2.15  0.  0.
217  2.16  0.  0.
218  2.17  0.  0.
219  2.18  0.  0.
220  2.19  0.  0.
221  2.20  0.  0.
222  2.21  0.  0.
223  2.22  0.  0.
224  2.23  0.  0.
225  2.24  0.  0.
226  2.25  0.  0.
227  2.26  0.  0.
228  2.27  0.  0.
229  2.28  0.  0.
230  2.29  0.  0.
231  2.30  0.  0.
232  2.31  0.  0.
233  2.32  0.  0.
234  2.33  0.  0.
235  2.34  0.  0.
236  2.35  0.  0.
237  2.36  0.  0.
238  2.37  0.  0.
239  2.38  0.  0.
240  2.39  0.  0.
241  2.40  0.  0.
242  2.41  0.  0.
243  2.42  0.  0.
244  2.43  0.  0.
245  2.44  0.  0.
246  2.45  0.  0.
247  2.46  0.  0.
248  2.47  0.  0.
249  2.48  0.  0.
250  2.49  0.  0.
251  2.50  0.  0.
252  2.51  0.  0.
253  2.52  0.  0.
254  2.53  0.  0.
255  2.54  0.  0.
256  2.55  0.  0.
257  2.56  0.  0.
258  2.57  0.  0.
259  2.58  0.  0.
260  2.59  0.  0.
261  2.60  0.  0.
262  2.61  0.  0.
263  2.62  0.  0.
264  2.63  0.  0.
265  2.64  0.  0.
266  2.65  0.  0.
267  2.66  0.  0.
268  2.67  0.  0.
269  2.68  0.  0.
270  2.69  0.  0.
271  2.70  0.  0.
272  2.71  0.  0.
273  2.72  0.  0.
274  2.73  0.  0.
275  2.74  0.  0.
276  2.75  0.  0.
277  2.76  0.  0.
278  2.77  0.  0.
279  2.78  0.  0.
280  2.79  0.  0.
281  2.80  0.  0.
282  2.81  0.  0.
283  2.82  0.  0.
284  2.83  0.  0.
285  2.84  0.  0.
286  2.85  0.  0.
287  2.86  0.  0.
288  2.87  0.  0.
289  2.88  0.  0.
290  2.89  0.  0.
291  2.90  0.  0.
292  2.91  0.  0.
293  2.92  0.  0.
294  2.93  0.  0.
295  2.94  0.  0.
296  2.95  0.  0.
297  2.96  0.  0.
298  2.97  0.  0.
299  2.98  0.  0.
300  2.99  0.  0.
301  3.00  0.  0.
302  3.01  0.  0.
303  3.02  0.  0.
304  3.03  0.  0.
305  3.04  0.  0.
306  3.05  0.  0.
307  3.06  0.  0.
308  3.07  0.  0.
309  3.08  0.  0.
310  3.09  0.  0.
311  3.10  0.  0.
312  3.11  0.  0.
313  3.12  0.  0.
314  3.13  0.  0.
315  3.14  0.  0.
316  3.15  0.  0.
317  3.16  0.  0.
318  3.17  0.  0.
319  3.18  0.  0.
320  3.19  0.  0.
321  3.20  0.  0.
322  3.21  0.  0.
323  3.22  0.  0.
324  3.23  0.  0.
325  3.24  0.  0.
326  3.25  0.  0.
327  3.26  0.  0.
328  3.27  0.  0.
329  3.28  0.  0.
330  3.29  0.  0.
331  3.30  0.  0.
332  3.31  0.  0.
333  3.32  0.  0.
334  3.33  0.  0.
335  3.34  0.  0.
336  3.35  0.  0.
337  3.36  0.  0.
338  3.37  0.  0.
339  3.38  0.  0.
340  3.39  0.  0.
341  3.40  0.  0.
342  3.41  0.  0.
343  3.42  0.  0.
344  3.43  0.  0.
345  3.44  0.  0.
346  3.45  0.  0.
347  3.46  0.  0.
348  3.47  0.  0.
349  3.48  0.  0.
350  3.49  0.  0.
351  3.50  0.  0.
352  3.51  0.  0.
353  3.52  0.  0.
354  3.53  0.  0.
355  3.54  0.  0.
356  3.55  0.  0.
357  3.56  0.  0.
358  3.57  0.  0.
359  3.58  0.  0.
360  3.59  0.  0.
361  3.60  0.  0.
362  3.61  0.  0.
363  3.62  0.  0.
364  3.63  0.  0.
365  3.64  0.  0.
366  3.65  0.  0.
367  3.66  0.  0.
368  3.67  0.  0.
369  3.68  0.  0.
370  3.69  0.  0.
371  3.70  0.  0.
372  3.71  0.  0.
373  3.72  0.  0.
374  3.73  0.  0.
375  3.74  0.  0.
376  3.75  0.  0.
377  3.76  0.  0.
378  3.77  0.  0.
379  3.78  0.  0.
380  3.79  0.  0.
381  3.80  0.  0.
382  3.81  0.  0.
383  3.82  0.  0.
384  3.83  0.  0.
385  3.84  0.  0.
386  3.85  0.  0.
387  3.86  0.  0.
388  3.87  0.  0.
389  3.88  0.  0.
390  3.89  0.  0.
391  3.90  0.  0.
392  3.91  0.  0.
393  3.92  0.  0.
394  3.93  0.  0.
395  3.94  0.  0.
396  3.95  0.  0.
397  3.96  0.  0.
398  3.97  0.  0.
399  3.98  0.  0.
400  3.99  0.  0.
401  4.00  0.  0.
402  4.01  0.  0.
403  4.02  0.  0.
404  4.03  0.  0.
405  4.04  0.  0.
406  4.05  0.  0.
407  4.06  0.  0.
408  4.07  0.  0.
409  4.08  0.  0.
410  4.09  0.  0.
411  4.10  0.  0.
412  4.11  0.  0.
413  4.12  0.  0.
414  4.13  0.  0.
415  4.14  0.  0.
416  4.15  0.  0.
417  4.16  0.  0.
418  4.17  0.  0.
419  4.18  0.  0.
420  4.19  0.  0.
421  4.20  0.  0.
422  4.21  0.  0.
423  4.22  0.  0.
424  4.23  0.  0.
425  4.24  0.  0.
426  4.25  0.  0.
427  4.26  0.  0.
428  4.27  0.  0.
429  4.28  0.  0.
430  4.29  0.  0.
431  4.30  0.  0.
432  4.31  0.  0.
433  4.32  0.  0.
434  4.33  0.  0.
435  4.34  0.  0.
436  4.35  0.  0.
437  4.36  0.  0.
438  4.37  0.  0.
439  4.38  0.  0.
440  4.39  0.  0.
441  4.40  0.  0.
442  4.41  0.  0.
443  4.42  0.  0.
444  4.43  0.  0.
445  4.44  0.  0.
446  4.45  0.  0.
447  4.46  0.  0.
448  4.47  0.  0.
449  4.48  0.  0.
450  4.49  0.  0.
451  4.50  0.  0.
452  4.51  0.  0.
453  4.52  0.  0.
454  4.53  0.  0.
455  4.54  0.  0.
456  4.55  0.  0.
457  4.56  0.  0.
458  4.57  0.  0.
459  4.58  0.  0.
460  4.59  0.  0.
461  4.60  0.  0.
462  4.61  0.  0.
463  4.62  0.  0.
464  4.63  0.  0.
465  4.64  0.  0.
466  4.65  0.  0.
467  4.66  0.  0.
468  4.67  0.  0.
469  4.68  0.  0.
470  4.69  0.  0.
471  4.70  0.  0.
472  4.71  0.  0.
473  4.72  0.  0.
474  4.73  0.  0.
475  4.74  0.  0.
476  4.75  0.  0.
477  4.76  0.  0.
478  4.77  0.  0.
479  4.78  0.  0.
480  4.79  0.  0.
481  4.80  0.  0.
482  4.81  0.  0.
483  4.82  0.  0.
484  4.83  0.  0.
485  4.84  0.  0.
486  4.85  0.  0.
487  4.86  0.  0.
488  4.87  0.  0.
489  4.88  0.  0.
490  4.89  0.  0.
491  4.90  0.  0.
492  4.91  0.  0.
493  4.92  0.  0.
494  4.93  0.  0.
495  4.94  0.  0.
496  4.95  0.  0.
497  4.96  0.  0.
498  4.97  0.  0.
499  4.98  0.  0.
500  4.99  0.  0.
501  5.00  0.  0.
502  5.01  0.  0.
503  5.02  0.  0.
504  5.03  0.  0.
505  5.04  0.  0.
506  5.05  0.  0.
507  5.06  0.  0.
508  5.07  0.  0.
509  5.08  0.  0.
510  5.09  0.  0.
511  5.10  0.  0.
512  5.11  0.  0.
513  5.12  0.  0.
514  5.13  0.  0.
515  5.14  0.  0.
516  5.15  0.  0.
517  5.16  0.  0.
518  5.17  0.  0.
519  5.18  0.  0.
520  5.19  0.  0.
521  5.20  0.  0.
522  5.21  0.  0.
523  5.22  0.  0.
524  5.23  0.  0.
525  5.24  0.  0.
526  5.25  0.  0.
527  5.26  0.  0.
528  5.27  0.  0.
529  5.28  0.  0.
530  5.29  0.  0.
531  5.30  0.  0.
532  5.31  0.  0.
533  5.32  0.  0.
534  5.33  0.  0.
535  5.34  0.  0.
536  5.35  0.  0.
537  5.36  0.  0.
538  5.37  0.  0.
539  5.38  0.  0.
540  5.39  0.  0.
541  5.40  0.  0.
542  5.41  0.  0.
543  5.42  0.  0.
544  5.43  0.  0.
545  5.44  0.  0.
546  5.45  0.  0.
547  5.46  0.  0.
548  5.47  0.  0.
549  5.48  0.  0.
550  5.49  0.  0.
551  5.50  0.  0.
552  5.51  0.  0.
553  5.52  0.  0.
554  5.53  0.  0.
555  5.54  0.  0.
556  5.55  0.  0.
557  5.56  0.  0.
558  5.57  0.  0.
559  5.58  0.  0.
560  5.59  0.  0.
561  5.60  0.  0.
562  5.61  0.  0.
563  5.62  0.  0.
564  5.63  0.  0.
565  5.64  0.  0.
566  5.65  0.  0.
567  5.66  0.  0.
568  5.67  0.  0.
569  5.68  0.  0.
570  5.69  0.  0.
571  5.70  0.  0.
572  5.71  0.  0.
573  5.72  0.  0.
574  5.73  0.  0.
575  5.74  0.  0.
576  5.75  0.  0.
577  5.76  0.  0.
578  5.77  0.  0.
579  5.78  0.  0.
580  5.79  0.  0.
581  5.80  0.  0.
582  5.81  0.  0.
583  5.82  0.  0.
584  5.83  0.  0.
585  5.84  0.  0.
586  5.85  0.  0.
587  5.86  0.  0.
588  5.87  0.  0.
589  5.88  0.  0.
590  5.89  0.  0.
591  5.90  0.  0.
592  5.91  0.  0.
593  5.92  0.  0.
594  5.93  0.  0.
595  5.94  0.  0.
596  5.95  0.  0.
597  5.96  0.  0.
598  5.97  0.  0.
599  5.98  0.  0.
600  5.99  0.  0.
1                         4.0744699640715E+00 -2.2831104302991E-01
1  0.0000000000000E+00 -1.6690425458377E-08 -5.6939453662447E-08
2  1.0000000000000E-02  2.1867725276731E-03 -4.4434424357917E-04
3  2.0000000000000E-02  8.7439256993504E-03 -1.7463320897010E-03
4  3.0000000000000E-02  1.9661680947216E-02 -3.8139611437561E-03
5  4.0000000000000E-02  3.4922800553918E-02 -6.4976306811826E-03
6  5.0000000000000E-02  5.4501215679352E-02 -9.5956161404114E-03
7  6.0000000000000E-02  7.8360180730766E-02 -1.2861476832161E-02
8  7.0000000000000E-02  1.0645002636749E-01 -1.6013150026646E-02
9  8.0000000000000E-02  1.3870560012203E-01 -1.8743427640823E-02
10  9.0000000000000E-02  1.7504349750060E-01 -2.0731464425297E-02
11  1.0000000000000E-01  2.1535919704972E-01 -2.1654930365638E-02
12  1.1000000000000E-01  2.5952421989009E-01 -2.1202396150093E-02
13  1.2000000000000E-01  3.0738343738283E-01 -1.9085529817821E-02
14  1.3000000000000E-01  3.5875264977781E-01 -1.5050685491091E-02
15  1.4000000000000E-01  4.1341655389363E-01 -8.8894813981305E-03
16  1.5000000000000E-01  4.7112720920638E-01 -4.4799377635796E-04
17  1.6000000000000E-01  5.3160309941082E-01  1.0365765128515E-02
18  1.7000000000000E-01  5.9452887090585E-01  2.3576364106464E-02
19  1.8000000000000E-01  6.5955581118998E-01  3.9137682112881E-02
20  1.9000000000000E-01  7.2630310936480E-01  5.6931996851593E-02
21  2.0000000000000E-01  7.9435991844296E-01  7.6771505045169E-02
22  2.1000000000000E-01  8.6328821560325E-01  9.8402268336748E-02
23  2.2000000000000E-01  9.3262643263085E-01  1.2151049974388E-01
24  2.3000000000000E-01  1.0018938052395E+00  1.4573102828836E-01
25  2.4000000000000E-01  1.0705953675071E+00  1.7065770629267E-01
26  2.5000000000000E-01  1.1382274969540E+00  1.9585545718821E-01
27  2.6000000000000E-01  1.2042838974864E+00  2.2087360367831E-01
28  2.7000000000000E-01  1.2682618921032E+00  2.4526006864752E-01
29  2.8000000000000E-01  1.3296688853969E+00  2.6857600591519E-01
30  2.9000000000000E-01  1.3880288478781E+00  2.9041039604904E-01
31  3.0000000000000E-01  1.4428886702870E+00  3.1039413483875E-01
32  3.1000000000000E-01  1.4938242364990E+00  3.2821314911418E-01
33  3.2000000000000E-01  1.5404460684148E+00  3.4362009636358E-01
34  3.3000000000000E-01  1.5824044052625E+00  3.5644424060758E-01
35  3.4000000000000E-01  1.6193935928144E+00  3.6659914631374E-01
36  3.5000000000000E-01  1.6511556747976E+00  3.7408789348167E-01
37  3.6000000000000E-01  1.6774830988077E+00  3.7900558869044E-01
38  3.7000000000000E-01  1.6982204717670E+00  3.8153902684493E-01
39  3.8000000000000E-01  1.7132653247797E+00  3.8196344427284E-01
40  3.9000000000000E-01  1.7225678734122E+00  3.8063639318085E-01
41  4.0000000000000E-01  1.7261297862371E+00  3.7798885760939E-01
42  4.1000000000000E-01  1.7240020011330E+00  3.7451381919849E-01
43  4.2000000000000E-01  1.7162816545752E+00  3.7075256457835E-01
44  4.3000000000000E-01  1.7031082132056E+00  3.6727910241153E-01
45  4.4000000000000E-01  1.6846589186351E+00  3.6468312460341E-01
46  4.5000000000000E-01  1.6611436750510E+00  3.6355200077579E-01
47  4.6000000000000E-01  1.6327995241995E+00  3.6445233590692E-01
48  4.7000000000000E-01  1.5998848632342E+00  3.6791164659415E-01
49  4.8000000000000E-01  1.5626735673911E+00  3.7440072064635E-01
50  4.9000000000000E-01  1.5214491812634E+00  3.8431721707829E-01
51  5.0000000000000E-01  1.4764993394850E+00  3.9797103897213E-01
52  5.1000000000000E-01  1.4281105699613E+00  4.1557197050566E-01
53  5.2000000000000E-01  1.3765636205671E+00  4.3722001263692E-01
54  5.3000000000000E-01  1.3221294338013E+00  4.6289878087513E-01
55  5.4000000000000E-01  1.2650658736769E+00  4.9247224509579E-01
56  5.5000000000000E-01  1.2056152857014E+00  5.2568499771288E-01
57  5.6000000000000E-01  1.1440029448231E+00  5.6216613528306E-01
58  5.7000000000000E-01  1.0804364184213E+00  6.0143673263064E-01
59  5.8000000000000E-01  1.0151058426190E+00  6.4292078088798E-01
60  5.9000000000000E-01  9.4818508121740E-01  6.8595935458701E-01
61  6.0000000000000E-01  8.7983370827508E-01  7.2982767126932E-01
62  6.1000000000000E-01  8.1019972860014E-01  7.7375461308587E-01
63  6.2000000000000E-01  7.3942292602588E-01  8.1694419644438E-01
64  6.3000000000000E-01  6.6763870803799E-01  8.5859840558646E-01
65  6.4000000000000E-01  5.9498229778999E-01  8.9794075135648E-01
66  6.5000000000000E-01  5.2159311135284E-01  9.3423987926779E-01
67  6.6000000000000E-01  4.4761914964052E-01  9.6683253271026E-01
68  6.7000000000000E-01  3.7322123115277E-01  9.9514517869418E-01
69  6.8000000000000E-01  2.9857689364655E-01  1.0187136252406E+00
70  6.9000000000000E-01  2.2388380010584E-01  1.0372000011855E+00
71  7.0000000000000E-01  1.4936249678905E-01  1.0504065299712E+00
72  7.1000000000000E-01  7.5258388402472E-02  1.0582856075709E+00
73  7.2000000000000E-01  1.8428171438558E-03  1.0609457891502E+00
74  7.3000000000000E-01 -7.0586842093221E-02  1.0586533969910E+00
75  7.4000000000000E-01 -1.4170812935147E-01  1.0518295807894E+00
76  7.5000000000000E-01 -2.1117551799698E-01  1.0410427874984E+00
77  7.6000000000000E-01 -2.7862349920633E-01  1.0269967279590E+00
78  7.7000000000000E-01 -3.4367069475739E-01  1.0105140580470E+00
79  7.8000000000000E-01 -4.0592492758330E-01  9.9251611922879E-01
80  7.9000000000000E-01 -4.6498914816020E-01  9.7399920360566E-01
81  8.0000000000000E-01 -5.2046808570546E-01  9.5600791819420E-01
82  8.1000000000000E-01 -5.7197546724901E-01  9.3960631902658E-01
83  8.2000000000000E-01 -6.1914162571140E-01  9.2584756469882E-01
84  8.3000000000000E-01 -6.6162130088523E-01  9.1574289869195E-01
85  8.4000000000000E-01 -6.9910142524819E-01  9.1023080810359E-01
86  8.5000000000000E-01 -7.3130868027547E-01  9.1014722187476E-01
87  8.6000000000000E-01 -7.5801660864655E-01  9.1619760332364E-01
88  8.7000000000000E-01 -7.7905207356940E-01  9.2893175959853E-01
89  8.8000000000000E-01 -7.9430086831574E-01  9.4872213499560E-01
90  8.9000000000000E-01 -8.0371229674166E-01  9.7574627708486E-01
91  9.0000000000000E-01 -8.0730256865883E-01  1.0099740660123E+00
92  9.1000000000000E-01 -8.0515688186287E-01  1.0511601805737E+00
93  9.2000000000000E-01 -7.9743009471283E-01  1.0988421425971E+00
94  9.3000000000000E-01 -7.8434592855339E-01  1.1523441372250E+00
95  9.4000000000000E-01 -7.6619467705093E-01  1.2107866545903E+00
96  9.5000000000000E-01 -7.4332943864696E-01  1.2731018422242E+00
97  9.6000000000000E-01 -7.1616092775709E-01  1.3380543015130E+00
98  9.7000000000000E-01 -6.8515095896943E-01  1.4042669099041E+00
99  9.8000000000000E-01 -6.5080473522216E-01  1.4702511076474E+00
100  9.9000000000000E-01 -6.1366210475835E-01  1.5344409575289E+00
101  1.0000000000000E+00 -5.7428798154446E-01  1.5952301722410E+00
102  1.0100000000000E+00 -5.3326214894956E-01  1.6510112099584E+00
103  1.0200000000000E+00 -4.9116868604763E-01  1.7002154672339E+00
104  1.0300000000000E+00 -4.4858526931637E-01  1.7413535517451E+00
105  1.0400000000000E+00 -4.0607260929972E-01  1.7730545973840E+00
106  1.0500000000000E+00 -3.6416428173881E-01  1.7941035914525E+00
107  1.0600000000000E+00 -3.2335720562704E-01  1.8034757186892E+00
108  1.0700000000000E+00 -2.8410300677763E-01  1.8003667886531E+00
109  1.0800000000000E+00 -2.4680048504437E-01  1.7842189005758E+00
110  1.0900000000000E+00 -2.1178937681884E-01  1.7547406109949E+00
111  1.1000000000000E+00 -1.7934557254739E-01  1.7119210013983E+00
112  1.1100000000000E+00 -1.4967791239582E-01  1.6560371931684E+00
113  1.1200000000000E+00 -1.2292664312391E-01  1.5876550201379E+00
114  1.1300000000000E+00 -9.9163576261943E-02  1.5076227428806E+00
115  1.1400000000000E+00 -7.8393943592890E-02  1.4170578663052E+00
116  1.1500000000000E+00 -6.0559901150997E-02  1.3173273015933E+00
117  1.1600000000000E+00 -4.5545589500118E-02  1.2100212868836E+00
118  1.1700000000000E+00 -3.3183616246199E-02  1.0969216472196E+00
119  1.1800000000000E+00 -2.3262788580332E-02  9.7996512522360E-01
120  1.1900000000000E+00 -1.5536889405565E-02  8.6120264871583E-01
121  1.2000000000000E+00 -9.7342618539578E-03  7.4275551388217E-01
122  1.2100000000000E+00 -5.5679441231065E-03  6.2676955116837E-01
123  1.2200000000000E+00 -2.7460725507711E-03  5.1536841365512E-01
124  1.2300000000000E+00 -9.8234107410683E-04  4.1060703768843E-01
125  1.2400000000000E+00 -6.7498661499485E-06  3.1442583707357E-01
126  1.2500000000000E+00  3.9729680817182E-04  2.2856726580399E-01
127  1.2600000000000E+00  4.3676427106246E-04  1.5460899729959E-01
128  1.2700000000000E+00  3.0632633425615E-04  9.3944788683779E-02
129  1.2800000000000E+00  1.4586186696391E-04  4.7705577870943E-02
130  1.2900000000000E+00  3.7215590602834E-05  1.6712732437979E-02
131  1.3000000000000E+00  1.2998714323968E-06  1.7879378062989E-03
132  1.3100000000000E+00  3.4009004623254E-08 -1.4751363989163E-04
133  1.3200000000000E+00  1.8089353037287E-09  3.4724773635268E-06
134  1.33 -0.  0.
135  1.34  0.  0.
136  1.35  0.  0.
137  1.36  0.  0.
138  1.37  0.  0.
139  1.38  0.  0.
140  1.39  0.  0.
141  1.40  0.  0.
142  1.41  0.  0.
143  1.42  0.  0.
144  1.43  0.  0.
145  1.44  0.  0.
146  1.45  0.  0.
147  1.46  0.  0.
148  1.47  0.  0.
149  1.48  0.  0.
150  1.49  0.  0.
151  1.50  0.  0.
152  1.51  0.  0.
153  1.52  0.  0.
154  1.53  0.  0.
155  1.54  0.  0.
156  1.55  0.  0.
157  1.56  0.  0.
158  1.57  0.  0.
159  1.58  0.  0.
160  1.59  0.  0.
161  1.60  0.  0.
162  1.61  0.  0.
163  1.62  0.  0.
164  1.63  0.  0.
165  1.64  0.  0.
166  1.65  0.  0.
167  1.66  0.  0.
168  1.67  0.  0.
169  1.68  0.  0.
170  1.69  0.  0.
171  1.70  0.  0.
172  1.71  0.  0.
173  1.72  0.  0.
174  1.73  0.  0.
175  1.74  0.  0.
176  1.75  0.  0.
177  1.76  0.  0.
178  1.77  0.  0.
179  1.78  0.  0.
180  1.79  0.  0.
181  1.80  0.  0.
182  1.81  0.  0.
183  1.82  0.  0.
184  1.83  0.  0.
185  1.84  0.  0.
186  1.85  0.  0.
187  1.86  0.  0.
188  1.87  0.  0.
189  1.88  0.  0.
190  1.89  0.  0.
191  1.90  0.  0.
192  1.91  0.  0.
193  1.92  0.  0.
194  1.93  0.  0.
195  1.94  0.  0.
196  1.95  0.  0.
197  1.96  0.  0.
198  1.97  0.  0.
199  1.98  0.  0.
200  1.99  0.  0.
201  2.00  0.  0.
202  2.01  0.  0.
203  2.02  0.  0.
204  2.03  0.  0.
205  2.04  0.  0.
206  2.05  0.  0.
207  2.06  0.  0.
208  2.07  0.  0.
209  2.08  0.  0.
210  2.09  0.  0.
211  2.10  0.  0.
212  2.11  0.  0.
213  2.12  0.  0.
214  2.13  0.  0.
215  2.14  0.  0.
216  2.15  0.  0.
217  2.16  0.  0.
218  2.17  0.  0.
219  2.18  0.  0.
220  2.19  0.  0.
221  2.20  0.  0.
222  2.21  0.  0.
223  2.22  0.  0.
224  2.23  0.  0.
225  2.24  0.  0.
226  2.25  0.  0.
227  2.26  0.  0.
228  2.27  0.  0.
229  2.28  0.  0.
230  2.29  0.  0.
231  2.30  0.  0.
232  2.31  0.  0.
233  2.32  0.  0.
234  2.33  0.  0.
235  2.34  0.  0.
236  2.35  0.  0.
237  2.36  0.  0.
238  2.37  0.  0.
239  2.38  0.  0.
240  2.39  0.  0.
241  2.40  0.  0.
242  2.41  0.  0.
243  2.42  0.  0.
244  2.43  0.  0.
245  2.44  0.  0.
246  2.45  0.  0.
247  2.46  0.  0.
248  2.47  0.  0.
249  2.48  0.  0.
250  2.49  0.  0.
251  2.50  0.  0.
252  2.51  0.  0.
253  2.52  0.  0.
254  2.53  0.  0.
255  2.54  0.  0.
256  2.55  0.  0.
257  2.56  0.  0.
258  2.57  0.  0.
259  2.58  0.  0.
260  2.59  0.  0.
261  2.60  0.  0.
262  2.61  0.  0.
263  2.62  0.  0.
264  2.63  0.  0.
265  2.64  0.  0.
266  2.65  0.  0.
267  2.66  0.  0.
268  2.67  0.  0.
269  2.68  0.  0.
270  2.69  0.  0.
271  2.70  0.  0.
272  2.71  0.  0.
273  2.72  0.  0.
274  2.73  0.  0.
275  2.74  0.  0.
276  2.75  0.  0.
277  2.76  0.  0.
278  2.77  0.  0.
279  2.78  0.  0.
280  2.79  0.  0.
281  2.80  0.  0.
282  2.81  0.  0.
283  2.82  0.  0.
284  2.83  0.  0.
285  2.84  0.  0.
286  2.85  0.  0.
287  2.86  0.  0.
288  2.87  0.  0.
289  2.88  0.  0.
290  2.89  0.  0.
291  2.90  0.  0.
292  2.91  0.  0.
293  2.92  0.  0.
294  2.93  0.  0.
295  2.94  0.  0.
296  2.95  0.  0.
297  2.96  0.  0.
298  2.97  0.  0.
299  2.98  0.  0.
300  2.99  0.  0.
301  3.00  0.  0.
302  3.01  0.  0.
303  3.02  0.  0.
304  3.03  0.  0.
305  3.04  0.  0.
306  3.05  0.  0.
307  3.06  0.  0.
308  3.07  0.  0.
309  3.08  0.  0.
310  3.09  0.  0.
311  3.10  0.  0.
312  3.11  0.  0.
313  3.12  0.  0.
314  3.13  0.  0.
315  3.14  0.  0.
316  3.15  0.  0.
317  3.16  0.  0.
318  3.17  0.  0.
319  3.18  0.  0.
320  3.19  0.  0.
321  3.20  0.  0.
322  3.21  0.  0.
323  3.22  0.  0.
324  3.23  0.  0.
325  3.24  0.  0.
326  3.25  0.  0.
327  3.26  0.  0.
328  3.27  0.  0.
329  3.28  0.  0.