Sn    ONCVPSP-4.0.1  r_core=   2.26172   2.61090   3.10550   2.20824
50.0000      4.0000      220201    zatom,zion,pspd
8      11   3     4   600     0    pspcod,pspxc,lmax,lloc,mmax,r2well
5.99000000  7.00000000  0.00000000    rchrg fchrg qchrg
2     2     2     1     0    nproj
1     1           extension_switch
0                         4.5701497673171E+00  5.3841355316712E-01
1  0.0000000000000E+00 -8.8649088070269E-12  1.4592292651994E-11
2  1.0000000000000E-02  1.8509069286385E-02  4.7085040697579E-03
3  2.0000000000000E-02  3.7009503933196E-02  9.3942582029964E-03
4  3.0000000000000E-02  5.5492718783742E-02  1.4034535233348E-02
5  4.0000000000000E-02  7.3950227280488E-02  1.8606653892616E-02
6  5.0000000000000E-02  9.2373689850375E-02  2.3088002650831E-02
7  6.0000000000000E-02  1.1075496119928E-01  2.7456064615133E-02
8  7.0000000000000E-02  1.2908613616243E-01  3.1688443823315E-02
9  8.0000000000000E-02  1.4735959376637E-01  3.5762893253275E-02
10  9.0000000000000E-02  1.6556803916910E-01  3.9657344851722E-02
11  1.0000000000000E-01  1.8370454315803E-01  4.3349941864136E-02
12  1.1000000000000E-01  2.0176257890028E-01  4.6819073723574E-02
13  1.2000000000000E-01  2.1973605565696E-01  5.0043413728480E-02
14  1.3000000000000E-01  2.3761934919155E-01  5.3001959709421E-02
15  1.4000000000000E-01  2.5540732862308E-01  5.5674077851856E-02
16  1.5000000000000E-01  2.7309537949668E-01  5.8039549806951E-02
17  1.6000000000000E-01  2.9067942286766E-01  6.0078623185139E-02
18  1.7000000000000E-01  3.0815593021976E-01  6.1772065488170E-02
19  1.8000000000000E-01  3.2552193406472E-01  6.3101221494650E-02
20  1.9000000000000E-01  3.4277503409661E-01  6.4048074072469E-02
21  2.0000000000000E-01  3.5991339880299E-01  6.4595308348470E-02
22  2.1000000000000E-01  3.7693576246296E-01  6.4726379122499E-02
23  2.2000000000000E-01  3.9384141749184E-01  6.4425581369345E-02
24  2.3000000000000E-01  4.1063020212161E-01  6.3678123628126E-02
25  2.4000000000000E-01  4.2730248343589E-01  6.2470204035809E-02
26  2.5000000000000E-01  4.4385913580866E-01  6.0789088718545E-02
27  2.6000000000000E-01  4.6030151482499E-01  5.8623192213216E-02
28  2.7000000000000E-01  4.7663142679235E-01  5.5962159551190E-02
29  2.8000000000000E-01  4.9285109397929E-01  5.2796949597819E-02
30  2.9000000000000E-01  5.0896311574746E-01  4.9119919204616E-02
31  3.0000000000000E-01  5.2497042577017E-01  4.4924907696651E-02
32  3.1000000000000E-01  5.4087624555730E-01  4.0207321186283E-02
33  3.2000000000000E-01  5.5668403453250E-01  3.4964216175131E-02
34  3.3000000000000E-01  5.7239743693233E-01  2.9194381880761E-02
35  3.4000000000000E-01  5.8802022582031E-01  2.2898420701984E-02
36  3.5000000000000E-01  6.0355624453025E-01  1.6078826218072E-02
37  3.6000000000000E-01  6.1900934587279E-01  8.7400581021459E-03
38  3.7000000000000E-01  6.3438332945720E-01  8.8861331776272E-04
39  3.8000000000000E-01  6.4968187749641E-01 -7.4669070385337E-03
40  3.9000000000000E-01  6.6490848947745E-01 -1.6315735889248E-02
41  4.0000000000000E-01  6.8006641609123E-01 -2.5644883960656E-02
42  4.1000000000000E-01  6.9515859282561E-01 -3.5439089832607E-02
43  4.2000000000000E-01  7.1018757363301E-01 -4.5680776874458E-02
44  4.3000000000000E-01  7.2515546508928E-01 -5.6350017673307E-02
45  4.4000000000000E-01  7.4006386146336E-01 -6.7424506540622E-02
46  4.5000000000000E-01  7.5491378111766E-01 -7.8879540658815E-02
47  4.6000000000000E-01  7.6970560465761E-01 -9.0688010400875E-02
48  4.7000000000000E-01  7.8443901524414E-01 -1.0282039932247E-01
49  4.8000000000000E-01  7.9911294147655E-01 -1.1524479428884E-01
50  4.9000000000000E-01  8.1372550324405E-01 -1.2792690615711E-01
51  5.0000000000000E-01  8.2827396093310E-01 -1.4083010138915E-01
52  5.1000000000000E-01  8.4275466836375E-01 -1.5391544492095E-01
53  5.2000000000000E-01  8.5716302981285E-01 -1.6714175456183E-01
54  5.3000000000000E-01  8.7149346146346E-01 -1.8046566714090E-01
55  5.4000000000000E-01  8.8573935760019E-01 -1.9384171655905E-01
56  5.5000000000000E-01  8.9989306184796E-01 -2.0722242384379E-01
57  5.6000000000000E-01  9.1394584372782E-01 -2.2055839923965E-01
58  5.7000000000000E-01  9.2788788077797E-01 -2.3379845630167E-01
59  5.8000000000000E-01  9.4170824646071E-01 -2.4688973789159E-01
60  5.9000000000000E-01  9.5539490404753E-01 -2.5977785390775E-01
61  6.0000000000000E-01  9.6893470664439E-01 -2.7240703051008E-01
62  6.1000000000000E-01  9.8231340348805E-01 -2.8472027053155E-01
63  6.2000000000000E-01  9.9551565261223E-01 -2.9665952469706E-01
64  6.3000000000000E-01  1.0085250399490E+00 -3.0816587320129E-01
65  6.4000000000000E-01  1.0213241048978E+00 -3.1917971712781E-01
66  6.5000000000000E-01  1.0338943723585E+00 -3.2964097912381E-01
67  6.6000000000000E-01  1.0462163911940E+00 -3.3948931267914E-01
68  6.7000000000000E-01  1.0582697790476E+00 -3.4866431929338E-01
69  6.8000000000000E-01  1.0700332734124E+00 -3.5710577275398E-01
70  6.9000000000000E-01  1.0814847888096E+00 -3.6475384968861E-01
71  7.0000000000000E-01  1.0926014799029E+00 -3.7154936550029E-01
72  7.1000000000000E-01  1.1033598103411E+00 -3.7743401474113E-01
73  7.2000000000000E-01  1.1137356270880E+00 -3.8235061493329E-01
74  7.3000000000000E-01  1.1237042399692E+00 -3.8624335280152E-01
75  7.4000000000000E-01  1.1332405061328E+00 -3.8905803184352E-01
76  7.5000000000000E-01  1.1423189190935E+00 -3.9074232012990E-01
77  7.6000000000000E-01  1.1509137020017E+00 -3.9124599719704E-01
78  7.7000000000000E-01  1.1589989047527E+00 -3.9052119887373E-01
79  7.8000000000000E-01  1.1665485045282E+00 -3.8852265886406E-01
80  7.9000000000000E-01  1.1735365093387E+00 -3.8520794589904E-01
81  8.0000000000000E-01  1.1799370641164E+00 -3.8053769526289E-01
82  8.1000000000000E-01  1.1857245588903E+00 -3.7447583350256E-01
83  8.2000000000000E-01  1.1908737385585E+00 -3.6698979513495E-01
84  8.3000000000000E-01  1.1953598137600E+00 -3.5805073018166E-01
85  8.4000000000000E-01  1.1991585723388E+00 -3.4763370138043E-01
86  8.5000000000000E-01  1.2022464908820E+00 -3.3571786994983E-01
87  8.6000000000000E-01  1.2046008458107E+00 -3.2228666881715E-01
88  8.7000000000000E-01  1.2061998234982E+00 -3.0732796225847E-01
89  8.8000000000000E-01  1.2070226288887E+00 -2.9083419094661E-01
90  8.9000000000000E-01  1.2070495920947E+00 -2.7280250145377E-01
91  9.0000000000000E-01  1.2062622724526E+00 -2.5323485931429E-01
92  9.1000000000000E-01  1.2046435595274E+00 -2.3213814481557E-01
93  9.2000000000000E-01  1.2021777705650E+00 -2.0952423075533E-01
94  9.3000000000000E-01  1.1988507439034E+00 -1.8541004147584E-01
95  9.4000000000000E-01  1.1946499278725E+00 -1.5981759256604E-01
96  9.5000000000000E-01  1.1895644647261E+00 -1.3277401070469E-01
97  9.6000000000000E-01  1.1835852691726E+00 -1.0431153320544E-01
98  9.7000000000000E-01  1.1767051010920E+00 -7.4467486915248E-02
99  9.8000000000000E-01  1.1689186320529E+00 -4.3284246212131E-02
100  9.9000000000000E-01  1.1602225052685E+00 -1.0809169944396E-02
101  1.0000000000000E+00  1.1506153886595E+00  2.2905482746870E-02
102  1.0100000000000E+00  1.1400980207240E+00  5.7802657680061E-02
103  1.0200000000000E+00  1.1286732489431E+00  9.3820631815756E-02
104  1.0300000000000E+00  1.1163460604887E+00  1.3089316012303E-01
105  1.0400000000000E+00  1.1031236050305E+00  1.6894964277963E-01
106  1.0500000000000E+00  1.0890152094790E+00  2.0791531225447E-01
107  1.0600000000000E+00  1.0740323845352E+00  2.4771143971845E-01
108  1.0700000000000E+00  1.0581888229568E+00  2.8825556013077E-01
109  1.0800000000000E+00  1.0415003894892E+00  3.2946171524942E-01
110  1.0900000000000E+00  1.0239851024458E+00  3.7124071371983E-01
111  1.1000000000000E+00  1.0056631069642E+00  4.1350040730293E-01
112  1.1100000000000E+00  9.8655664000038E-01  4.5614598221631E-01
113  1.1200000000000E+00  9.6668998716309E-01  4.9908026447767E-01
114  1.1300000000000E+00  9.4608943152785E-01  5.4220403805983E-01
115  1.1400000000000E+00  9.2478319460734E-01  5.8541637459347E-01
116  1.1500000000000E+00  9.0280136969167E-01  6.2861497328350E-01
117  1.1600000000000E+00  8.8017584780680E-01  6.7169650964402E-01
118  1.1700000000000E+00  8.5694023657420E-01  7.1455699159905E-01
119  1.1800000000000E+00  8.3312977228704E-01  7.5709212144824E-01
120  1.1900000000000E+00  8.0878122554999E-01  7.9919766215338E-01
121  1.2000000000000E+00  7.8393280085863E-01  8.4076980636739E-01
122  1.2100000000000E+00  7.5862403052270E-01  8.8170554660015E-01
123  1.2200000000000E+00  7.3289566336247E-01  9.2190304489623E-01
124  1.2300000000000E+00  7.0678954863154E-01  9.6126200038832E-01
125  1.2400000000000E+00  6.8034851564015E-01  9.9968401308751E-01
126  1.2500000000000E+00  6.5361624957224E-01  1.0370729422768E+00
127  1.2600000000000E+00  6.2663716400580E-01  1.0733352578873E+00
128  1.2700000000000E+00  5.9945627065988E-01  1.1083803832598E+00
129  1.2800000000000E+00  5.7211904690294E-01  1.1421210277235E+00
130  1.2900000000000E+00  5.4467130156584E-01  1.1744735074629E+00
131  1.3000000000000E+00  5.1715903960860E-01  1.2053580531895E+00
132  1.3100000000000E+00  4.8962832619339E-01  1.2346991031912E+00
133  1.3200000000000E+00  4.6212515071653E-01  1.2624255803923E+00
134  1.3300000000000E+00  4.3469529135023E-01  1.2884711521264E+00
135  1.3400000000000E+00  4.0738418063964E-01  1.3127744714036E+00
136  1.3500000000000E+00  3.8023677269352E-01  1.3352793985330E+00
137  1.3600000000000E+00  3.5329741249626E-01  1.3559352020533E+00
138  1.3700000000000E+00  3.2660970785666E-01  1.3746967380182E+00
139  1.3800000000000E+00  3.0021640449350E-01  1.3915246067853E+00
140  1.3900000000000E+00  2.7415926474037E-01  1.4063852865604E+00
141  1.4000000000000E+00  2.4847895033260E-01  1.4192512430619E+00
142  1.4100000000000E+00  2.2321490971706E-01  1.4301010147808E+00
143  1.4200000000000E+00  1.9840527030187E-01  1.4389192734305E+00
144  1.4300000000000E+00  1.7408673603691E-01  1.4456968592990E+00
145  1.4400000000000E+00  1.5029449068900E-01  1.4504307913372E+00
146  1.4500000000000E+00  1.2706210714610E-01  1.4531242519408E+00
147  1.4600000000000E+00  1.0442146305471E-01  1.4537865465050E+00
148  1.4700000000000E+00  8.2402663062693E-02  1.4524330379564E+00
149  1.4800000000000E+00  6.1033967907595E-02  1.4490850565855E+00
150  1.4900000000000E+00  4.0341730556043E-02  1.4437697856302E+00
151  1.5000000000000E+00  2.0350339566523E-02  1.4365201231736E+00
152  1.5100000000000E+00  1.0821698125909E-03  1.4273745210407E+00
153  1.5200000000000E+00 -1.7442459331428E-02  1.4163768014890E+00
154  1.5300000000000E+00 -3.5205318274952E-02  1.4035759526004E+00
155  1.5400000000000E+00 -5.2190293933890E-02  1.3890259033823E+00
156  1.5500000000000E+00 -6.8383408894027E-02  1.3727852796902E+00
157  1.5600000000000E+00 -8.3772833051882E-02  1.3549171421748E+00
158  1.5700000000000E+00 -9.8348887803240E-02  1.3354887075463E+00
159  1.5800000000000E+00 -1.1210404288242E-01  1.3145710545287E+00
160  1.5900000000000E+00 -1.2503290598663E-01  1.2922388159512E+00
161  1.6000000000000E+00 -1.3713220535096E-01  1.2685698584915E+00
162  1.6100000000000E+00 -1.4840076546772E-01  1.2436449516404E+00
163  1.6200000000000E+00 -1.5883947617259E-01  1.2175474275131E+00
164  1.6300000000000E+00 -1.6845125534516E-01  1.1903628331674E+00
165  1.6400000000000E+00 -1.7724100549633E-01  1.1621785771269E+00
166  1.6500000000000E+00 -1.8521556453722E-01  1.1330835718287E+00
167  1.6600000000000E+00 -1.9238365104469E-01  1.1031678737281E+00
168  1.6700000000000E+00 -1.9875580435718E-01  1.0725223227997E+00
169  1.6800000000000E+00 -2.0434431985052E-01  1.0412381831705E+00
170  1.6900000000000E+00 -2.0916317975777E-01  1.0094067866029E+00
171  1.7000000000000E+00 -2.1322797990864E-01  9.7711918052749E-01
172  1.7100000000000E+00 -2.1655585277392E-01  9.4446578228978E-01
173  1.7200000000000E+00 -2.1916538720711E-01  9.1153604123414E-01
174  1.7300000000000E+00 -2.2107654528077E-01  8.7841811019966E-01
175  1.7400000000000E+00 -2.2231057661761E-01  8.4519852794246E-01
176  1.7500000000000E+00 -2.2288993061614E-01  8.1196191393234E-01
177  1.7600000000000E+00 -2.2283816696959E-01  7.7879067689747E-01
178  1.7700000000000E+00 -2.2217986487190E-01  7.4576473840781E-01
179  1.7800000000000E+00 -2.2094053129857E-01  7.1296127269938E-01
180  1.7900000000000E+00 -2.1914650874186E-01  6.8045446384495E-01
181  1.8000000000000E+00 -2.1682488276908E-01  6.4831528127587E-01
182  1.8100000000000E+00 -2.1400338976094E-01  6.1661127455195E-01
183  1.8200000000000E+00 -2.1071032517245E-01  5.8540638816451E-01
184  1.8300000000000E+00 -2.0697445264332E-01  5.5476079704158E-01
185  1.8400000000000E+00 -2.0282491426758E-01  5.2473076330468E-01
186  1.8500000000000E+00 -1.9829114231357E-01  4.9536851470380E-01
187  1.8600000000000E+00 -1.9340277266520E-01  4.6672214503270E-01
188  1.8700000000000E+00 -1.8818956023502E-01  4.3883553670069E-01
189  1.8800000000000E+00 -1.8268129657695E-01  4.1174830550961E-01
190  1.8900000000000E+00 -1.7690772990444E-01  3.8549576755849E-01
191  1.9000000000000E+00 -1.7089848769632E-01  3.6010892807220E-01
192  1.9100000000000E+00 -1.6468300204820E-01  3.3561449182414E-01
193  1.9200000000000E+00 -1.5829043790466E-01  3.1203489470420E-01
194  1.9300000000000E+00 -1.5174962428149E-01  2.8938835585883E-01
195  1.9400000000000E+00 -1.4508898856463E-01  2.6768894971731E-01
196  1.9500000000000E+00 -1.3833649394762E-01  2.4694669710502E-01
197  1.9600000000000E+00 -1.3151958004631E-01  2.2716767453779E-01
198  1.9700000000000E+00 -1.2466510670644E-01  2.0835414069005E-01
199  1.9800000000000E+00 -1.1779930099737E-01  1.9050467893273E-01
200  1.9900000000000E+00 -1.1094770736403E-01  1.7361435475058E-01
201  2.0000000000000E+00 -1.0413514088848E-01  1.5767488676452E-01
202  2.0100000000000E+00 -9.7385643593093E-02  1.4267483001106E-01
203  2.0200000000000E+00 -9.0722443699527E-02  1.2859977006567E-01
204  2.0300000000000E+00 -8.4167917740569E-02  1.1543252653852E-01
205  2.0400000000000E+00 -7.7743555406853E-02  1.0315336442248E-01
206  2.0500000000000E+00 -7.1469926996647E-02  9.1740211733965E-02
207  2.0600000000000E+00 -6.5366653324908E-02  8.1168881856423E-02
208  2.0700000000000E+00 -5.9452377936888E-02  7.1413298974623E-02
209  2.0800000000000E+00 -5.3744741463419E-02  6.2445724977856E-02
210  2.0900000000000E+00 -4.8260357947894E-02  5.4236986207556E-02
211  2.1000000000000E+00 -4.3014792969912E-02  4.6756698434789E-02
212  2.1100000000000E+00 -3.8022541873208E-02  3.9973484441789E-02
213  2.1200000000000E+00 -3.3297020698470E-02  3.3855216622013E-02
214  2.1300000000000E+00 -2.8850523269811E-02  2.8369159722887E-02
215  2.1400000000000E+00 -2.4694236336033E-02  2.3482257109810E-02
216  2.1500000000000E+00 -2.0838303196818E-02  1.9161535015539E-02
217  2.1600000000000E+00 -1.7292996189431E-02  1.5377435977173E-02
218  2.1700000000000E+00 -1.4067006648234E-02  1.2099482023874E-02
219  2.1800000000000E+00 -1.1166286657102E-02  9.2933945509072E-03
220  2.1900000000000E+00 -8.5957239848852E-03  6.9257285689928E-03
221  2.2000000000000E+00 -6.3589487426129E-03  4.9635265481521E-03
222  2.2100000000000E+00 -4.4583528070814E-03  3.3744779766110E-03
223  2.2200000000000E+00 -2.8951389058121E-03  2.1272952557563E-03
224  2.2300000000000E+00 -1.6700954541170E-03  1.1928512794847E-03
225  2.2400000000000E+00 -7.7682657375430E-04  5.4039194535720E-04
226  2.2500000000000E+00 -2.3054944883899E-04  1.5646113009358E-04
227  2.2600000000000E+00 -1.3564675028890E-05  9.2256590117091E-06
228  2.2700000000000E+00  1.1680615959168E-05 -7.5101091221338E-06
229  2.2800000000000E+00 -4.2209470340948E-06  2.7731708344781E-06
230  2.29  0. -0.
231  2.30  0. -0.
232  2.31  0. -0.
233  2.32  0.  0.
234  2.33  0.  0.
235  2.34  0.  0.
236  2.35  0.  0.
237  2.36  0.  0.
238  2.37  0.  0.
239  2.38  0.  0.
240  2.39  0.  0.
241  2.40  0.  0.
242  2.41  0.  0.
243  2.42  0.  0.
244  2.43  0.  0.
245  2.44  0.  0.
246  2.45  0.  0.
247  2.46  0.  0.
248  2.47  0.  0.
249  2.48  0.  0.
250  2.49  0.  0.
251  2.50  0.  0.
252  2.51  0.  0.
253  2.52  0.  0.
254  2.53  0.  0.
255  2.54  0.  0.
256  2.55  0.  0.
257  2.56  0.  0.
258  2.57  0.  0.
259  2.58  0.  0.
260  2.59  0.  0.
261  2.60  0.  0.
262  2.61  0.  0.
263  2.62  0.  0.
264  2.63  0.  0.
265  2.64  0.  0.
266  2.65  0.  0.
267  2.66  0.  0.
268  2.67  0.  0.
269  2.68  0.  0.
270  2.69  0.  0.
271  2.70  0.  0.
272  2.71  0.  0.
273  2.72  0.  0.
274  2.73  0.  0.
275  2.74  0.  0.
276  2.75  0.  0.
277  2.76  0.  0.
278  2.77  0.  0.
279  2.78  0.  0.
280  2.79  0.  0.
281  2.80  0.  0.
282  2.81  0.  0.
283  2.82  0.  0.
284  2.83  0.  0.
285  2.84  0.  0.
286  2.85  0.  0.
287  2.86  0.  0.
288  2.87  0.  0.
289  2.88  0.  0.
290  2.89  0.  0.
291  2.90  0.  0.
292  2.91  0.  0.
293  2.92  0.  0.
294  2.93  0.  0.
295  2.94  0.  0.
296  2.95  0.  0.
297  2.96  0.  0.
298  2.97  0.  0.
299  2.98  0.  0.
300  2.99  0.  0.
301  3.00  0.  0.
302  3.01  0.  0.
303  3.02  0.  0.
304  3.03  0.  0.
305  3.04  0.  0.
306  3.05  0.  0.
307  3.06  0.  0.
308  3.07  0.  0.
309  3.08  0.  0.
310  3.09  0.  0.
311  3.10  0.  0.
312  3.11  0.  0.
313  3.12  0.  0.
314  3.13  0.  0.
315  3.14  0.  0.
316  3.15  0.  0.
317  3.16  0.  0.
318  3.17  0.  0.
319  3.18  0.  0.
320  3.19  0.  0.
321  3.20  0.  0.
322  3.21  0.  0.
323  3.22  0.  0.
324  3.23  0.  0.
325  3.24  0.  0.
326  3.25  0.  0.
327  3.26  0.  0.
328  3.27  0.  0.
329  3.28  0.  0.
330  3.29  0.  0.
331  3.30  0.  0.
332  3.31  0.  0.
333  3.32  0.  0.
334  3.33  0.  0.
335  3.34  0.  0.
336  3.35  0.  0.
337  3.36  0.  0.
338  3.37  0.  0.
339  3.38  0.  0.
340  3.39  0.  0.
341  3.40  0.  0.
342  3.41  0.  0.
343  3.42  0.  0.
344  3.43  0.  0.
345  3.44  0.  0.
346  3.45  0.  0.
347  3.46  0.  0.
348  3.47  0.  0.
349  3.48  0.  0.
350  3.49  0.  0.
351  3.50  0.  0.
352  3.51  0.  0.
353  3.52  0.  0.
354  3.53  0.  0.
355  3.54  0.  0.
356  3.55  0.  0.
357  3.56  0.  0.
358  3.57  0.  0.
359  3.58  0.  0.
360  3.59  0.  0.
361  3.60  0.  0.
362  3.61  0.  0.
363  3.62  0.  0.
364  3.63  0.  0.
365  3.64  0.  0.
366  3.65  0.  0.
367  3.66  0.  0.
368  3.67  0.  0.
369  3.68  0.  0.
370  3.69  0.  0.
371  3.70  0.  0.
372  3.71  0.  0.
373  3.72  0.  0.
374  3.73  0.  0.
375  3.74  0.  0.
376  3.75  0.  0.
377  3.76  0.  0.
378  3.77  0.  0.
379  3.78  0.  0.
380  3.79  0.  0.
381  3.80  0.  0.
382  3.81  0.  0.
383  3.82  0.  0.
384  3.83  0.  0.
385  3.84  0.  0.
386  3.85  0.  0.
387  3.86  0.  0.
388  3.87  0.  0.
389  3.88  0.  0.
390  3.89  0.  0.
391  3.90  0.  0.
392  3.91  0.  0.
393  3.92  0.  0.
394  3.93  0.  0.
395  3.94  0.  0.
396  3.95  0.  0.
397  3.96  0.  0.
398  3.97  0.  0.
399  3.98  0.  0.
400  3.99  0.  0.
401  4.00  0.  0.
402  4.01  0.  0.
403  4.02  0.  0.
404  4.03  0.  0.
405  4.04  0.  0.
406  4.05  0.  0.
407  4.06  0.  0.
408  4.07  0.  0.
409  4.08  0.  0.
410  4.09  0.  0.
411  4.10  0.  0.
412  4.11  0.  0.
413  4.12  0.  0.
414  4.13  0.  0.
415  4.14  0.  0.
416  4.15  0.  0.
417  4.16  0.  0.
418  4.17  0.  0.
419  4.18  0.  0.
420  4.19  0.  0.
421  4.20  0.  0.
422  4.21  0.  0.
423  4.22  0.  0.
424  4.23  0.  0.
425  4.24  0.  0.
426  4.25  0.  0.
427  4.26  0.  0.
428  4.27  0.  0.
429  4.28  0.  0.
430  4.29  0.  0.
431  4.30  0.  0.
432  4.31  0.  0.
433  4.32  0.  0.
434  4.33  0.  0.
435  4.34  0.  0.
436  4.35  0.  0.
437  4.36  0.  0.
438  4.37  0.  0.
439  4.38  0.  0.
440  4.39  0.  0.
441  4.40  0.  0.
442  4.41  0.  0.
443  4.42  0.  0.
444  4.43  0.  0.
445  4.44  0.  0.
446  4.45  0.  0.
447  4.46  0.  0.
448  4.47  0.  0.
449  4.48  0.  0.
450  4.49  0.  0.
451  4.50  0.  0.
452  4.51  0.  0.
453  4.52  0.  0.
454  4.53  0.  0.
455  4.54  0.  0.
456  4.55  0.  0.
457  4.56  0.  0.
458  4.57  0.  0.
459  4.58  0.  0.
460  4.59  0.  0.
461  4.60  0.  0.
462  4.61  0.  0.
463  4.62  0.  0.
464  4.63  0.  0.
465  4.64  0.  0.
466  4.65  0.  0.
467  4.66  0.  0.
468  4.67  0.  0.
469  4.68  0.  0.
470  4.69  0.  0.
471  4.70  0.  0.
472  4.71  0.  0.
473  4.72  0.  0.
474  4.73  0.  0.
475  4.74  0.  0.
476  4.75  0.  0.
477  4.76  0.  0.
478  4.77  0.  0.
479  4.78  0.  0.
480  4.79  0.  0.
481  4.80  0.  0.
482  4.81  0.  0.
483  4.82  0.  0.
484  4.83  0.  0.
485  4.84  0.  0.
486  4.85  0.  0.
487  4.86  0.  0.
488  4.87  0.  0.
489  4.88  0.  0.
490  4.89  0.  0.
491  4.90  0.  0.
492  4.91  0.  0.
493  4.92  0.  0.
494  4.93  0.  0.
495  4.94  0.  0.
496  4.95  0.  0.
497  4.96  0.  0.
498  4.97  0.  0.
499  4.98  0.  0.
500  4.99  0.  0.
501  5.00  0.  0.
502  5.01  0.  0.
503  5.02  0.  0.
504  5.03  0.  0.
505  5.04  0.  0.
506  5.05  0.  0.
507  5.06  0.  0.
508  5.07  0.  0.
509  5.08  0.  0.
510  5.09  0.  0.
511  5.10  0.  0.
512  5.11  0.  0.
513  5.12  0.  0.
514  5.13  0.  0.
515  5.14  0.  0.
516  5.15  0.  0.
517  5.16  0.  0.
518  5.17  0.  0.
519  5.18  0.  0.
520  5.19  0.  0.
521  5.20  0.  0.
522  5.21  0.  0.
523  5.22  0.  0.
524  5.23  0.  0.
525  5.24  0.  0.
526  5.25  0.  0.
527  5.26  0.  0.
528  5.27  0.  0.
529  5.28  0.  0.
530  5.29  0.  0.
531  5.30  0.  0.
532  5.31  0.  0.
533  5.32  0.  0.
534  5.33  0.  0.
535  5.34  0.  0.
536  5.35  0.  0.
537  5.36  0.  0.
538  5.37  0.  0.
539  5.38  0.  0.
540  5.39  0.  0.
541  5.40  0.  0.
542  5.41  0.  0.
543  5.42  0.  0.
544  5.43  0.  0.
545  5.44  0.  0.
546  5.45  0.  0.
547  5.46  0.  0.
548  5.47  0.  0.
549  5.48  0.  0.
550  5.49  0.  0.
551  5.50  0.  0.
552  5.51  0.  0.
553  5.52  0.  0.
554  5.53  0.  0.
555  5.54  0.  0.
556  5.55  0.  0.
557  5.56  0.  0.
558  5.57  0.  0.
559  5.58  0.  0.
560  5.59  0.  0.
561  5.60  0.  0.
562  5.61  0.  0.
563  5.62  0.  0.
564  5.63  0.  0.
565  5.64  0.  0.
566  5.65  0.  0.
567  5.66  0.  0.
568  5.67  0.  0.
569  5.68  0.  0.
570  5.69  0.  0.
571  5.70  0.  0.
572  5.71  0.  0.
573  5.72  0.  0.
574  5.73  0.  0.
575  5.74  0.  0.
576  5.75  0.  0.
577  5.76  0.  0.
578  5.77  0.  0.
579  5.78  0.  0.
580  5.79  0.  0.
581  5.80  0.  0.
582  5.81  0.  0.
583  5.82  0.  0.
584  5.83  0.  0.
585  5.84  0.  0.
586  5.85  0.  0.
587  5.86  0.  0.
588  5.87  0.  0.
589  5.88  0.  0.
590  5.89  0.  0.
591  5.90  0.  0.
592  5.91  0.  0.
593  5.92  0.  0.
594  5.93  0.  0.
595  5.94  0.  0.
596  5.95  0.  0.
597  5.96  0.  0.
598  5.97  0.  0.
599  5.98  0.  0.
600  5.99  0.  0.
1                         3.1899816054214E+00  5.7727954248765E-01
1  0.0000000000000E+00  7.8657587387898E-11 -1.1223114451675E-10
2  1.0000000000000E-02  4.5567980097003E-04 -3.0365287653422E-04
3  2.0000000000000E-02  1.8211372837131E-03 -1.2127508094762E-03
4  3.0000000000000E-02  4.0916345875903E-03 -2.7217223569036E-03
5  4.0000000000000E-02  7.2593015701478E-03 -4.8213172173185E-03
6  5.0000000000000E-02  1.1313175101923E-02 -7.4986591776827E-03
7  6.0000000000000E-02  1.6239253793691E-02 -1.0737319832711E-02
8  7.0000000000000E-02  2.2020567872406E-02 -1.4517412670048E-02
9  8.0000000000000E-02  2.8637263843439E-02 -1.8815707003731E-02
10  9.0000000000000E-02  3.6066703499939E-02 -2.3605761128867E-02
11  1.0000000000000E-01  4.4283576765519E-02 -2.8858073964250E-02
12  1.1000000000000E-01  5.3260027784482E-02 -3.4540254347264E-02
13  1.2000000000000E-01  6.2965793604702E-02 -4.0617207047373E-02
14  1.3000000000000E-01  7.3368354732530E-02 -4.7051334471435E-02
15  1.4000000000000E-01  8.4433096776939E-02 -5.3802752946296E-02
16  1.5000000000000E-01  9.6123482341917E-02 -6.0829522382227E-02
17  1.6000000000000E-01  1.0840123227218E-01 -6.8087888045166E-02
18  1.7000000000000E-01  1.2122651530780E-01 -7.5532533096784E-02
19  1.8000000000000E-01  1.3455814515882E-01 -8.3116840499516E-02
20  1.9000000000000E-01  1.4835378397091E-01 -9.0793162829244E-02
21  2.0000000000000E-01  1.6257015111927E-01 -9.8513098491508E-02
22  2.1000000000000E-01  1.7716323623826E-01 -1.0622777279832E-01
23  2.2000000000000E-01  1.9208851537127E-01 -1.1388812233195E-01
24  2.3000000000000E-01  2.0730116910720E-01 -1.2144518099990E-01
25  2.4000000000000E-01  2.2275630155804E-01 -1.2885036617118E-01
26  2.5000000000000E-01  2.3840915902576E-01 -1.3605576327925E-01
27  2.6000000000000E-01  2.5421534720649E-01 -1.4301440727993E-01
28  2.7000000000000E-01  2.7013104578546E-01 -1.4968055936501E-01
29  2.8000000000000E-01  2.8611321928788E-01 -1.5600997735279E-01
30  2.9000000000000E-01  3.0211982306814E-01 -1.6196017820614E-01
31  3.0000000000000E-01  3.1811000334282E-01 -1.6749069116618E-01
32  3.1000000000000E-01  3.3404429020203E-01 -1.7256330003554E-01
33  3.2000000000000E-01  3.4988478256773E-01 -1.7714227319928E-01
34  3.3000000000000E-01  3.6559532410761E-01 -1.8119458003280E-01
35  3.4000000000000E-01  3.8114166915797E-01 -1.8469009241570E-01
36  3.5000000000000E-01  3.9649163775907E-01 -1.8760177014656E-01
37  3.6000000000000E-01  4.1161525896102E-01 -1.8990582913667E-01
38  3.7000000000000E-01  4.2648490161777E-01 -1.9158189135047E-01
39  3.8000000000000E-01  4.4107539194982E-01 -1.9261311555557E-01
40  3.9000000000000E-01  4.5536411722382E-01 -1.9298630804626E-01
41  4.0000000000000E-01  4.6933111496827E-01 -1.9269201261013E-01
42  4.1000000000000E-01  4.8295914721825E-01 -1.9172457911772E-01
43  4.2000000000000E-01  4.9623375935965E-01 -1.9008221022925E-01
44  4.3000000000000E-01  5.0914332322252E-01 -1.8776698582974E-01
45  4.4000000000000E-01  5.2167906415483E-01 -1.8478486492417E-01
46  4.5000000000000E-01  5.3383507189142E-01 -1.8114566484627E-01
47  4.6000000000000E-01  5.4560829511720E-01 -1.7686301775822E-01
48  4.7000000000000E-01  5.5699851970939E-01 -1.7195430454311E-01
49  4.8000000000000E-01  5.6800833072931E-01 -1.6644056631640E-01
50  4.9000000000000E-01  5.7864305831995E-01 -1.6034639390680E-01
51  5.0000000000000E-01  5.8891070775131E-01 -1.5369979577999E-01
52  5.1000000000000E-01  5.9882187393967E-01 -1.4653204499975E-01
53  5.2000000000000E-01  6.0838964085046E-01 -1.3887750593970E-01
54  5.3000000000000E-01  6.1762946627559E-01 -1.3077344157459E-01
55  5.4000000000000E-01  6.2655905255576E-01 -1.2225980229209E-01
56  5.5000000000000E-01  6.3519820389464E-01 -1.1337899727337E-01
57  5.6000000000000E-01  6.4356867098601E-01 -1.0417564959396E-01
58  5.7000000000000E-01  6.5169398374488E-01 -9.4696336293149E-02
59  5.8000000000000E-01  6.5959927300068E-01 -8.4989314751869E-02
60  5.9000000000000E-01  6.6731108207293E-01 -7.5104236803338E-02
61  6.0000000000000E-01  6.7485716920804E-01 -6.5091852078783E-02
62  6.1000000000000E-01  6.8226630190922E-01 -5.5003702160553E-02
63  6.2000000000000E-01  6.8956804423975E-01 -4.4891807177365E-02
64  6.3000000000000E-01  6.9679253822316E-01 -3.4808346530515E-02
65  6.4000000000000E-01  7.0397028050073E-01 -2.4805335485269E-02
66  6.5000000000000E-01  7.1113189543899E-01 -1.4934299398280E-02
67  6.6000000000000E-01  7.1830790590515E-01 -5.2459473792323E-03
68  6.7000000000000E-01  7.2552850294800E-01  4.2101527970869E-03
69  6.8000000000000E-01  7.3282331563523E-01  1.3385896703536E-02
70  6.9000000000000E-01  7.4022118230462E-01  2.2234960374655E-02
71  7.0000000000000E-01  7.4774992448734E-01  3.0713110709253E-02
72  7.1000000000000E-01  7.5543612475527E-01  3.8778507369452E-02
73  7.2000000000000E-01  7.6330490973173E-01  4.6391994414295E-02
74  7.3000000000000E-01  7.7137973948598E-01  5.3517379945938E-02
75  7.4000000000000E-01  7.7968220450642E-01  6.0121702095741E-02
76  7.5000000000000E-01  7.8823183141557E-01  6.6175479736190E-02
77  7.6000000000000E-01  7.9704589855197E-01  7.1652946372171E-02
78  7.7000000000000E-01  8.0613926250029E-01  7.6532265741581E-02
79  7.8000000000000E-01  8.1552419660084E-01  8.0795727739980E-02
80  7.9000000000000E-01  8.2521024241444E-01  8.4429923376887E-02
81  8.0000000000000E-01  8.3520407505768E-01  8.7425897571740E-02
82  8.1000000000000E-01  8.4550938325774E-01  8.9779278705213E-02
83  8.2000000000000E-01  8.5612676490505E-01  9.1490383955710E-02
84  8.3000000000000E-01  8.6705363880719E-01  9.2564299571355E-02
85  8.4000000000000E-01  8.7828417326793E-01  9.3010935353493E-02
86  8.5000000000000E-01  8.8980923203233E-01  9.2845052758607E-02
87  8.6000000000000E-01  9.0161633805280E-01  9.2086266160453E-02
88  8.7000000000000E-01  9.1368965544144E-01  9.0759016952877E-02
89  8.8000000000000E-01  9.2600998988255E-01  8.8892520315195E-02
90  8.9000000000000E-01  9.3855480768563E-01  8.6520684605698E-02
91  9.0000000000000E-01  9.5129827356373E-01  8.3682003493868E-02
92  9.1000000000000E-01  9.6421130712607E-01  8.0419421087647E-02
93  9.2000000000000E-01  9.7726165797682E-01  7.6780170457850E-02
94  9.3000000000000E-01  9.9041399921513E-01  7.2815586106529E-02
95  9.4000000000000E-01  1.0036300390350E+00  6.8580891069457E-02
96  9.5000000000000E-01  1.0168686500280E+00  6.4134959483742E-02
97  9.6000000000000E-01  1.0300860156981E+00  5.9540055589323E-02
98  9.7000000000000E-01  1.0432357936041E+00  5.4861550267039E-02
99  9.8000000000000E-01  1.0562692944581E+00  5.0167616345255E-02
100  9.9000000000000E-01  1.0691356764183E+00  4.5528904031037E-02
101  1.0000000000000E+00  1.0817821537329E+00  4.1018197939870E-02
102  1.0100000000000E+00  1.0941542188109E+00  3.6710057309215E-02
103  1.0200000000000E+00  1.1061958767205E+00  3.2680441085311E-02
104  1.0300000000000E+00  1.1178498910440E+00  2.9006319668661E-02
105  1.0400000000000E+00  1.1290580399528E+00  2.5765275191395E-02
106  1.0500000000000E+00  1.1397613813044E+00  2.3035092278275E-02
107  1.0600000000000E+00  1.1499005255095E+00  2.0893341312366E-02
108  1.0700000000000E+00  1.1594159148677E+00  1.9416956285568E-02
109  1.0800000000000E+00  1.1682481080266E+00  1.8681809363234E-02
110  1.0900000000000E+00  1.1763380681855E+00  1.8762284330307E-02
111  1.1000000000000E+00  1.1836274536338E+00  1.9730851113861E-02
112  1.1100000000000E+00  1.1900589091914E+00  2.1657643592998E-02
113  1.1200000000000E+00  1.1955763571066E+00  2.4610042912010E-02
114  1.1300000000000E+00  1.2001252859536E+00  2.8652268506062E-02
115  1.1400000000000E+00  1.2036530360784E+00  3.3844979030464E-02