<?xml version="1.0" encoding="UTF-8" ?>
<psml version="1.1" energy_unit="hartree" length_unit="bohr"
 uuid="4acde260-c73e-11ed-4755-b2749a730fea"
 xmlns="http://esl.cecam.org/PSML/ns/1.1">
<provenance creator="ONCVPSP-4.0.1+psml-4.0.1-76 (scalar-relativistic)"
 date="2023-03-20">
<annotation action="semilocal-pseudopotential-generation"
 action-cont="projectors-generation" />
<input-file name="oncvpsp-input">
<![CDATA[# atsym z nc nv iexc psfile
Te 52 8 3 4 both
# n l f
1 0 2.0
2 0 2.0
2 1 6.0
3 0 2.0
3 1 6.0
3 2 10.0
4 0 2.0
4 1 6.0
4 2 10.0
5 0 2.0
5 1 4.0
# lmax
3
# l rc ep ncon nbas qcut
0 2.25 0.0 4 8 4.2
1 1.9 0.0 4 8 6.0
2 1.8 0.0 4 9 8.4
3 2.0 0.05 4 8 6.0
# lloc lpopt rc5 dvloc0
4 5 1.8 0.0
# l nproj debl
0 3 3.0
1 2 3.5
2 2 1.6
3 2 2.0
# icmod fcfact rcfact
3 5.0 1.43
# epsh1 epsh2 depsh
-12.0 12.0 0.02
# rlmax drl
6.0 0.01
0
]]>
</input-file>
</provenance>
<pseudo-atom-spec atomic-label="Te" atomic-number="52" z-pseudo="16"
 flavor="Hamann&apos;s oncvpsp" relativity="scalar" spin-dft="no"
 core-corrections="yes">
<annotation pseudo-energy="-93.2422448499" cutoff_hint_low="74"
 cutoff_hint_normal="79" cutoff_hint_high="94" />
<exchange-correlation>
<annotation oncvpsp-xc-code="4" oncvpsp-xc-type="GGA -- Perdew-Burke-Ernzerhof" />
<libxc-info number-of-functionals="2">
<functional name="Perdew, Burke &amp; Ernzerhof (GGA)" type="exchange" id="101" />
<functional name="Perdew, Burke &amp; Ernzerhof (GGA)" type="correlation"
 id="130" />
</libxc-info>
</exchange-correlation>
<valence-configuration total-valence-charge="16">
<shell n="4" l="d" occupation="10" />
<shell n="5" l="s" occupation="2" />
<shell n="5" l="p" occupation="4" />
</valence-configuration>
</pseudo-atom-spec>
<grid npts="797">
<annotation type="sampled from oncvpsp log grid"
 recipe="r(i:1..N) = r1*exp(a*(i-1)) + r=0; resampled"
 recipe-cont="r1: scale; a: step" scale="0.961538461538E-05"
 step="0.598207167755E-02" delta="0.500000000000E-02" rmax="44.6051688792" />
<grid-data>
  0.000000000000E+00  5.017120058604E-03  1.004200092945E-02  1.508283382330E-02
  2.009953548832E-02  2.522953743384E-02  3.037013276145E-02  3.548086418588E-02
  4.071437249694E-02  4.588886964498E-02  5.110589673098E-02  5.623914435990E-02
  6.151887931687E-02  6.689291866307E-02  7.230259667183E-02  7.768365725326E-02
  8.296739442339E-02  8.808201852643E-02  9.351193973981E-02  9.868448800241E-02
  1.041431521942E-01  1.092482690059E-01  1.146036395991E-01  1.202215314611E-01
  1.253626376079E-01  1.307235959900E-01  1.363138082815E-01  1.421430782063E-01
  1.473376031120E-01  1.527219584992E-01  1.583030815977E-01  1.640881631534E-01
  1.700846566934E-01  1.752487953570E-01  1.805697284584E-01  1.860522166165E-01
  1.917011649928E-01  1.975216276802E-01  2.035188122248E-01  2.096980842850E-01
  2.147763145449E-01  2.199775236230E-01  2.253046896808E-01  2.307608630013E-01
  2.363491677362E-01  2.420728036941E-01  2.479350481730E-01  2.539392578367E-01
  2.600888706371E-01  2.663874077824E-01  2.728384757532E-01  2.794457683680E-01
  2.845060327019E-01  2.896579293954E-01  2.949031177470E-01  3.002432871023E-01
  3.056801573977E-01  3.112154797147E-01  3.168510368439E-01  3.225886438589E-01
  3.284301487011E-01  3.343774327747E-01  3.404324115529E-01  3.465970351947E-01
  3.528732891729E-01  3.592631949139E-01  3.657688104483E-01  3.723922310739E-01
  3.791355900309E-01  3.860010591885E-01  3.929908497445E-01  4.001072129377E-01
  4.073524407728E-01  4.147288667584E-01  4.222388666591E-01  4.273209336582E-01
  4.324641684157E-01  4.376693071468E-01  4.429370949276E-01  4.482682858021E-01
  4.536636428900E-01  4.591239384959E-01  4.646499542196E-01  4.702424810686E-01
  4.759023195707E-01  4.816302798891E-01  4.874271819378E-01  4.932938554996E-01
  4.992311403444E-01  5.052398863496E-01  5.113209536217E-01  5.174752126195E-01
  5.237035442786E-01  5.300068401375E-01  5.363860024654E-01  5.428419443911E-01
  5.493755900338E-01  5.559878746354E-01  5.626797446946E-01  5.694521581017E-01
  5.763060842766E-01  5.832425043070E-01  5.902624110888E-01  5.973668094687E-01
  6.045567163874E-01  6.118331610259E-01  6.191971849520E-01  6.266498422701E-01
  6.341921997716E-01  6.418253370881E-01  6.495503468453E-01  6.573683348199E-01
  6.652804200978E-01  6.732877352341E-01  6.813914264154E-01  6.895926536237E-01
  6.978925908027E-01  7.062924260256E-01  7.147933616653E-01  7.233966145663E-01
  7.321034162192E-01  7.409150129368E-01  7.498326660325E-01  7.588576520009E-01
  7.679912627003E-01  7.772348055382E-01  7.865896036577E-01  7.960569961273E-01
  8.056383381327E-01  8.153350011704E-01  8.251483732445E-01  8.350798590649E-01
  8.400903382193E-01  8.451308802486E-01  8.502016655301E-01  8.553028755233E-01
  8.604346927764E-01  8.655973009331E-01  8.707908847387E-01  8.760156300471E-01
  8.812717238274E-01  8.865593541704E-01  8.918787102954E-01  8.972299825571E-01
  9.026133624525E-01  9.080290426272E-01  9.134772168830E-01  9.189580801843E-01
  9.244718286654E-01  9.300186596374E-01  9.355987715952E-01  9.412123642248E-01
  9.468596384101E-01  9.525407962406E-01  9.582560410180E-01  9.640055772641E-01
  9.697896107277E-01  9.756083483921E-01  9.814619984824E-01  9.873507704733E-01
  9.932748750962E-01  9.992345243467E-01  1.005229931493E+00  1.011261311082E+00
  1.017328878948E+00  1.023432852222E+00  1.029573449335E+00  1.035750890031E+00
  1.041965395371E+00  1.048217187744E+00  1.054506490870E+00  1.060833529815E+00
  1.067198530994E+00  1.073601722180E+00  1.080043332513E+00  1.086523592508E+00
  1.093042734063E+00  1.099600990468E+00  1.106198596411E+00  1.112835787989E+00
  1.119512802717E+00  1.126229879533E+00  1.132987258811E+00  1.139785182363E+00
  1.146623893458E+00  1.153503636818E+00  1.160424658639E+00  1.167387206591E+00
  1.174391529831E+00  1.181437879010E+00  1.188526506284E+00  1.195657665321E+00
  1.202831611313E+00  1.210048600981E+00  1.217308892587E+00  1.224612745943E+00
  1.231960422418E+00  1.239352184953E+00  1.246788298062E+00  1.254269027851E+00
  1.261794642018E+00  1.269365409870E+00  1.276981602329E+00  1.284643491943E+00
  1.292351352895E+00  1.300105461012E+00  1.307906093778E+00  1.315753530341E+00
  1.323648051523E+00  1.331589939832E+00  1.339579479471E+00  1.347616956348E+00
  1.355702658086E+00  1.363836874035E+00  1.372019895279E+00  1.380252014651E+00
  1.388533526738E+00  1.396864727899E+00  1.405245916266E+00  1.413677391764E+00
  1.422159456114E+00  1.430692412851E+00  1.439276567328E+00  1.447912226732E+00
  1.456599700093E+00  1.465339298293E+00  1.474131334083E+00  1.482976122087E+00
  1.491873978820E+00  1.500825222693E+00  1.509830174029E+00  1.518889155073E+00
  1.528002490004E+00  1.537170504944E+00  1.546393527973E+00  1.555671889141E+00
  1.565005920476E+00  1.574395955999E+00  1.583842331735E+00  1.593345385725E+00
  1.602905458040E+00  1.612522890788E+00  1.622198028133E+00  1.631931216301E+00
  1.641722803599E+00  1.651573140421E+00  1.661482579263E+00  1.671451474739E+00
  1.681480183587E+00  1.691569064689E+00  1.701718479077E+00  1.711928789951E+00
  1.722200362691E+00  1.732533564867E+00  1.742928766256E+00  1.753386338854E+00
  1.763906656887E+00  1.774490096828E+00  1.785137037409E+00  1.795847859634E+00
  1.806622946792E+00  1.817462684472E+00  1.828367460579E+00  1.839337665343E+00
  1.850373691335E+00  1.861475933483E+00  1.872644789084E+00  1.883880657818E+00
  1.895183941765E+00  1.906555045416E+00  1.917994375688E+00  1.929502341942E+00
  1.941079355994E+00  1.952725832130E+00  1.964442187123E+00  1.976228840245E+00
  1.988086213287E+00  2.000014730567E+00  2.012014818950E+00  2.024086907864E+00
  2.036231429311E+00  2.048448817887E+00  2.060739510794E+00  2.073103947859E+00
  2.085542571546E+00  2.098055826975E+00  2.110644161937E+00  2.123308026909E+00
  2.136047875070E+00  2.148864162321E+00  2.161757347295E+00  2.174727891378E+00
  2.187776258727E+00  2.200902916279E+00  2.214108333777E+00  2.227392983779E+00
  2.240757341682E+00  2.254201885732E+00  2.267727097047E+00  2.281333459629E+00
  2.295021460387E+00  2.308791589149E+00  2.322644338684E+00  2.336580204716E+00
  2.350599685944E+00  2.364703284060E+00  2.378891503764E+00  2.393164852787E+00
  2.407523841903E+00  2.421968984955E+00  2.436500798865E+00  2.451119803658E+00
  2.465826522480E+00  2.480621481615E+00  2.495505210504E+00  2.510478241767E+00
  2.525541111218E+00  2.540694357885E+00  2.555938524033E+00  2.571274155177E+00
  2.586701800108E+00  2.602222010909E+00  2.617835342974E+00  2.633542355032E+00
  2.649343609162E+00  2.665239670817E+00  2.681231108842E+00  2.697318495495E+00
  2.713502406468E+00  2.729783420907E+00  2.746162121432E+00  2.762639094161E+00
  2.779214928726E+00  2.795890218298E+00  2.812665559608E+00  2.829541552965E+00
  2.846518802283E+00  2.863597915097E+00  2.880779502588E+00  2.898064179603E+00
  2.915452564681E+00  2.932945280069E+00  2.950542951749E+00  2.968246209460E+00
  2.986055686716E+00  3.003972020837E+00  3.021995852962E+00  3.040127828080E+00
  3.058368595048E+00  3.076718806618E+00  3.095179119458E+00  3.113750194175E+00
  3.132432695340E+00  3.151227291512E+00  3.170134655261E+00  3.189155463192E+00
  3.208290395972E+00  3.227540138347E+00  3.246905379178E+00  3.266386811453E+00
  3.285985132321E+00  3.305701043115E+00  3.325535249374E+00  3.345488460870E+00
  3.365561391635E+00  3.385754759985E+00  3.406069288545E+00  3.426505704276E+00
  3.447064738502E+00  3.467747126933E+00  3.488553609695E+00  3.509484931353E+00
  3.530541840941E+00  3.551725091987E+00  3.573035442539E+00  3.594473655194E+00
  3.616040497125E+00  3.637736740108E+00  3.659563160548E+00  3.681520539512E+00
  3.703609662749E+00  3.725831320725E+00  3.748186308650E+00  3.770675426501E+00
  3.793299479060E+00  3.816059275935E+00  3.838955631590E+00  3.861989365380E+00
  3.885161301572E+00  3.908472269382E+00  3.931923102998E+00  3.955514641616E+00
  3.979247729466E+00  4.003123215842E+00  4.027141955137E+00  4.051304806868E+00
  4.075612635710E+00  4.100066311524E+00  4.124666709393E+00  4.149414709649E+00
  4.174311197907E+00  4.199357065095E+00  4.224553207485E+00  4.249900526730E+00
  4.275399929890E+00  4.301052329470E+00  4.326858643447E+00  4.352819795307E+00
  4.378936714079E+00  4.405210334364E+00  4.431641596370E+00  4.458231445948E+00
  4.484980834624E+00  4.511890719631E+00  4.538962063949E+00  4.566195836333E+00
  4.593593011351E+00  4.621154569419E+00  4.648881496836E+00  4.676774785817E+00
  4.704835434531E+00  4.733064447139E+00  4.761462833822E+00  4.790031610824E+00
  4.818771800489E+00  4.847684431292E+00  4.876770537880E+00  4.906031161107E+00
  4.935467348074E+00  4.965080152162E+00  4.994870633075E+00  5.024839856874E+00
  5.054988896015E+00  5.085318829391E+00  5.115830742368E+00  5.146525726822E+00
  5.177404881183E+00  5.208469310470E+00  5.239720126333E+00  5.271158447091E+00
  5.302785397773E+00  5.334602110160E+00  5.366609722821E+00  5.398809381158E+00
  5.431202237445E+00  5.463789450869E+00  5.496572187574E+00  5.529551620700E+00
  5.562728930424E+00  5.596105304007E+00  5.629681935831E+00  5.663460027446E+00
  5.697440787610E+00  5.731625432336E+00  5.766015184930E+00  5.800611276040E+00
  5.835414943696E+00  5.870427433358E+00  5.905649997958E+00  5.941083897946E+00
  5.976730401334E+00  6.012590783742E+00  6.048666328444E+00  6.084958326415E+00
  6.121468076373E+00  6.158196884831E+00  6.195146066140E+00  6.232316942537E+00
  6.269710844193E+00  6.307329109258E+00  6.345173083913E+00  6.383244122417E+00
  6.421543587151E+00  6.460072848674E+00  6.498833285766E+00  6.537826285481E+00
  6.577053243194E+00  6.616515562653E+00  6.656214656029E+00  6.696151943965E+00
  6.736328855629E+00  6.776746828762E+00  6.817407309735E+00  6.858311753593E+00
  6.899461624115E+00  6.940858393860E+00  6.982503544223E+00  7.024398565488E+00
  7.066544956881E+00  7.108944226622E+00  7.151597891982E+00  7.194507479334E+00
  7.237674524210E+00  7.281100571355E+00  7.324787174783E+00  7.368735897832E+00
  7.412948313219E+00  7.457426003098E+00  7.502170559117E+00  7.547183582472E+00
  7.592466683967E+00  7.638021484070E+00  7.683849612975E+00  7.729952710653E+00
  7.776332426917E+00  7.822990421478E+00  7.869928364007E+00  7.917147934191E+00
  7.964650821796E+00  8.012438726727E+00  8.060513359087E+00  8.108876439242E+00
  8.157529697877E+00  8.206474876064E+00  8.255713725321E+00  8.305248007673E+00
  8.355079495719E+00  8.405209972693E+00  8.455641232529E+00  8.506375079924E+00
  8.557413330404E+00  8.608757810386E+00  8.660410357249E+00  8.712372819392E+00
  8.764647056309E+00  8.817234938646E+00  8.870138348278E+00  8.923359178368E+00
  8.976899333438E+00  9.030760729439E+00  9.084945293815E+00  9.139454965578E+00
  9.194291695372E+00  9.249457445544E+00  9.304954190217E+00  9.360783915359E+00
  9.416948618851E+00  9.473450310564E+00  9.530291012427E+00  9.587472758502E+00
  9.644997595053E+00  9.702867580623E+00  9.761084786107E+00  9.819651294824E+00
  9.878569202592E+00  9.937840617808E+00  9.997467661515E+00  1.005745246748E+01
  1.011779718229E+01  1.017850396538E+01  1.023957498917E+01  1.030101243911E+01
  1.036281851374E+01  1.042499542483E+01  1.048754539738E+01  1.055047066976E+01
  1.061377349378E+01  1.067745613474E+01  1.074152087155E+01  1.080596999678E+01
  1.087080581676E+01  1.093603065166E+01  1.100164683557E+01  1.106765671658E+01
  1.113406265688E+01  1.120086703282E+01  1.126807223502E+01  1.133568066843E+01
  1.140369475244E+01  1.147211692096E+01  1.154094962248E+01  1.161019532022E+01
  1.167985649214E+01  1.174993563109E+01  1.182043524488E+01  1.189135785635E+01
  1.196270600349E+01  1.203448223951E+01  1.210668913294E+01  1.217932926774E+01
  1.225240524335E+01  1.232591967481E+01  1.239987519286E+01  1.247427444401E+01
  1.254912009068E+01  1.262441481122E+01  1.270016130009E+01  1.277636226789E+01
  1.285302044150E+01  1.293013856415E+01  1.300771939553E+01  1.308576571190E+01
  1.316428030618E+01  1.324326598801E+01  1.332272558394E+01  1.340266193744E+01
  1.348307790907E+01  1.356397637652E+01  1.364536023478E+01  1.372723239619E+01
  1.380959579057E+01  1.389245336531E+01  1.397580808550E+01  1.405966293402E+01
  1.414402091162E+01  1.422888503709E+01  1.431425834731E+01  1.440014389740E+01
  1.448654476078E+01  1.457346402935E+01  1.466090481352E+01  1.474887024240E+01
  1.483736346386E+01  1.492638764464E+01  1.501594597051E+01  1.510604164633E+01
  1.519667789621E+01  1.528785796359E+01  1.537958511137E+01  1.547186262204E+01
  1.556469379777E+01  1.565808196056E+01  1.575203045232E+01  1.584654263503E+01
  1.594162189084E+01  1.603727162219E+01  1.613349525192E+01  1.623029622343E+01
  1.632767800077E+01  1.642564406878E+01  1.652419793319E+01  1.662334312079E+01
  1.672308317951E+01  1.682342167859E+01  1.692436220866E+01  1.702590838192E+01
  1.712806383221E+01  1.723083221520E+01  1.733421720849E+01  1.743822251174E+01
  1.754285184681E+01  1.764810895789E+01  1.775399761164E+01  1.786052159731E+01
  1.796768472689E+01  1.807549083526E+01  1.818394378027E+01  1.829304744295E+01
  1.840280572761E+01  1.851322256197E+01  1.862430189734E+01  1.873604770873E+01
  1.884846399498E+01  1.896155477895E+01  1.907532410762E+01  1.918977605227E+01
  1.930491470858E+01  1.942074419684E+01  1.953726866202E+01  1.965449227399E+01
  1.977241922763E+01  1.989105374300E+01  2.001040006546E+01  2.013046246585E+01
  2.025124524064E+01  2.037275271209E+01  2.049498922836E+01  2.061795916373E+01
  2.074166691871E+01  2.086611692022E+01  2.099131362175E+01  2.111726150348E+01
  2.124396507250E+01  2.137142886293E+01  2.149965743611E+01  2.162865538073E+01
  2.175842731301E+01  2.188897787689E+01  2.202031174415E+01  2.215243361462E+01
  2.228534821630E+01  2.241906030560E+01  2.255357466743E+01  2.268889611544E+01
  2.282502949213E+01  2.296197966908E+01  2.309975154710E+01  2.323835005638E+01
  2.337778015672E+01  2.351804683766E+01  2.365915511869E+01  2.380111004940E+01
  2.394391670969E+01  2.408758020995E+01  2.423210569121E+01  2.437749832536E+01
  2.452376331531E+01  2.467090589520E+01  2.481893133058E+01  2.496784491856E+01
  2.511765198807E+01  2.526835790000E+01  2.541996804740E+01  2.557248785568E+01
  2.572592278282E+01  2.588027831951E+01  2.603555998943E+01  2.619177334937E+01
  2.634892398946E+01  2.650701753340E+01  2.666605963860E+01  2.682605599643E+01
  2.698701233241E+01  2.714893440641E+01  2.731182801284E+01  2.747569898092E+01
  2.764055317481E+01  2.780639649386E+01  2.797323487282E+01  2.814107428206E+01
  2.830992072775E+01  2.847978025211E+01  2.865065893363E+01  2.882256288723E+01
  2.899549826455E+01  2.916947125414E+01  2.934448808166E+01  2.952055501015E+01
  2.969767834022E+01  2.987586441026E+01  3.005511959672E+01  3.023545031430E+01
  3.041686301618E+01  3.059936419428E+01  3.078296037945E+01  3.096765814172E+01
  3.115346409057E+01  3.134038487512E+01  3.152842718437E+01  3.171759774747E+01
  3.190790333396E+01  3.209935075396E+01  3.229194685849E+01  3.248569853964E+01
  3.268061273088E+01  3.287669640726E+01  3.307395658570E+01  3.327240032522E+01
  3.347203472717E+01  3.367286693553E+01  3.387490413715E+01  3.407815356197E+01
  3.428262248334E+01  3.448831821824E+01  3.469524812755E+01  3.490341961632E+01
  3.511284013401E+01  3.532351717482E+01  3.553545827787E+01  3.574867102753E+01
  3.596316305370E+01  3.617894203202E+01  3.639601568421E+01  3.661439177832E+01
  3.683407812899E+01  3.705508259776E+01  3.727741309335E+01  3.750107757191E+01
  3.772608403734E+01  3.795244054156E+01  3.818015518481E+01  3.840923611592E+01
  3.863969153262E+01  3.887152968181E+01  3.910475885990E+01  3.933938741306E+01
  3.957542373754E+01  3.981287627997E+01  4.005175353765E+01  4.029206405887E+01
  4.053381644323E+01  4.077701934189E+01  4.102168145794E+01  4.126781154669E+01
  4.151541841597E+01  4.176451092646E+01  4.201509799202E+01  4.226718857997E+01
  4.252079171145E+01  4.277591646172E+01  4.303257196049E+01  4.329076739225E+01
  4.355051199661E+01  4.381181506859E+01  4.407468595900E+01  4.433913407475E+01
  4.460516887920E+01
</grid-data>
</grid>
<valence-charge total-charge="16" is-unscreening-charge="yes"
 rescaled-to-z-pseudo="no">
<radfunc>
<data npts="797">
  7.748275646548E-04  7.794249012106E-04  7.970330685645E-04  8.392129247748E-04
  9.244950977556E-04  1.083870346423E-03  1.352802911282E-03  1.772407052733E-03
  2.413145527640E-03  3.318183320294E-03  4.574303402191E-03  6.223030774937E-03
  8.432723493214E-03  1.131616597907E-02  1.497558099472E-02  1.948732637605E-02
  2.488458265697E-02  3.114015336260E-02  3.902521322159E-02  4.786059211170E-02
  5.873461352909E-02  7.048467075548E-02  8.460362540828E-02  1.015601220584E-01
  1.191608775563E-01  1.397989171949E-01  1.639843092375E-01  1.923085073935E-01
  2.203966867224E-01  2.525195052590E-01  2.892335650185E-01  3.311666353556E-01
  3.790254018404E-01  4.240041929917E-01  4.741575278447E-01  5.300451592280E-01
  5.922804405471E-01  6.615340920804E-01  7.385379457374E-01  8.240885911078E-01
  8.992615680551E-01  9.809321161298E-01  1.069605895499E+00  1.165819449364E+00
  1.270140756920E+00  1.383169546282E+00  1.505537315316E+00  1.637907001793E+00
  1.780972237383E+00  1.935456112755E+00  2.102109373601E+00  2.281707959833E+00
  2.425381551590E+00  2.577128805806E+00  2.737297707205E+00  2.906239421247E+00
  3.084306743489E+00  3.271852330263E+00  3.469226694207E+00  3.676775948157E+00
  3.894839281006E+00  4.123746149527E+00  4.363813170830E+00  4.615340701127E+00
  4.878609087883E+00  5.153874584276E+00  5.441364917220E+00  5.741274503137E+00
  6.053759309177E+00  6.378931361812E+00  6.716852909712E+00  7.067530253582E+00
  7.430907262301E+00  7.806858602280E+00  8.195182715492E+00  8.460802130708E+00
  8.731689185019E+00  9.007718386558E+00  9.288744334332E+00  9.574600734485E+00
  9.865099424165E+00  1.016002940912E+01  1.045915592173E+01  1.076221950672E+01
  1.106893514251E+01  1.137899140657E+01  1.169204969399E+01  1.200774349893E+01
  1.232567776917E+01  1.264542834477E+01  1.296654149208E+01  1.328853354529E+01
  1.361089066756E+01  1.393306874499E+01  1.425449342614E+01  1.457456032089E+01
  1.489263537201E+01  1.520805541316E+01  1.552012892686E+01  1.582813701586E+01
  1.613133460080E+01  1.642895185661E+01  1.672019589947E+01  1.700425273488E+01
  1.728028947654E+01  1.754745684420E+01  1.780489194683E+01  1.805172135576E+01
  1.828706447006E+01  1.851003717393E+01  1.871975578321E+01  1.891534127475E+01
  1.909592378937E+01  1.926064739523E+01  1.940867509457E+01  1.953919405273E+01
  1.965142102389E+01  1.974460794351E+01  1.981804765292E+01  1.987107971639E+01
  1.990309628691E+01  1.991354797168E+01  1.990194964425E+01  1.986788614557E+01
  1.981101781291E+01  1.973108577137E+01  1.962791692056E+01  1.950142854624E+01
  1.935163248561E+01  1.917863877433E+01  1.898265870372E+01  1.876400721854E+01
  1.864630688567E+01  1.852310458826E+01  1.839446946187E+01  1.826047728924E+01
  1.812121048076E+01  1.797675804050E+01  1.782721551766E+01  1.767268494292E+01
  1.751327474971E+01  1.734909968002E+01  1.718028067473E+01  1.700694474827E+01
  1.682922484768E+01  1.664725969596E+01  1.646119361985E+01  1.627117636217E+01
  1.607736287883E+01  1.587991312084E+01  1.567899180151E+01  1.547476814935E+01
  1.526741564694E+01  1.505711175638E+01  1.484403763176E+01  1.462837781939E+01
  1.441031994632E+01  1.419005439800E+01  1.396777398579E+01  1.374367360522E+01
  1.351794988586E+01  1.329080083378E+01  1.306242546763E+01  1.283302344923E+01
  1.260279471003E+01  1.237193907430E+01  1.214065588033E+01  1.190914360088E+01
  1.167759946394E+01  1.144621907516E+01  1.121519604307E+01  1.098472160853E+01
  1.075498427933E+01  1.052616947158E+01  1.029845915873E+01  1.007203152971E+01
  9.847060657267E+00  9.623716177566E+00  9.402162982355E+00  9.182560924602E+00
  8.965064538708E+00  8.749822776236E+00  8.536978758058E+00  8.326669543775E+00
  8.119025919157E+00  7.914172202306E+00  7.712226069158E+00  7.513298398844E+00
  7.317493139354E+00  7.124907193868E+00  6.935630328011E+00  6.749745098195E+00
  6.567326801144E+00  6.388443444579E+00  6.213155738943E+00  6.041517109993E+00
  5.873573731936E+00  5.709364580762E+00  5.548921507284E+00  5.392269329352E+00
  5.239425942611E+00  5.090402449104E+00  4.945203302950E+00  4.803826472260E+00
  4.666263616403E+00  4.532500277670E+00  4.402516086350E+00  4.276284978170E+00
  4.153775423054E+00  4.034950664076E+00  3.919768965525E+00  3.808183868924E+00
  3.700144455882E+00  3.595595616646E+00  3.494478323210E+00  3.396729905888E+00
  3.302284332227E+00  3.211072487220E+00  3.123022453758E+00  3.038059792325E+00
  2.956107818983E+00  2.877087880723E+00  2.800919627323E+00  2.727521278893E+00
  2.656809888368E+00  2.588701598236E+00  2.523111890869E+00  2.459955831882E+00
  2.399148306004E+00  2.340604244999E+00  2.284238847246E+00  2.229967788632E+00
  2.177707424468E+00  2.127374982194E+00  2.078888744683E+00  2.032168223977E+00
  1.987134325357E+00  1.943709501648E+00  1.901817897696E+00  1.861385484974E+00
  1.822340186287E+00  1.784611990527E+00  1.748133057470E+00  1.712837812569E+00
  1.678663031694E+00  1.645547915766E+00  1.613434155217E+00  1.582265984184E+00
  1.551990224336E+00  1.522556318225E+00  1.493916352054E+00  1.466025067727E+00
  1.438839864065E+00  1.412320786934E+00  1.386430508202E+00  1.361134294223E+00
  1.336399963978E+00  1.312197835958E+00  1.288500664407E+00  1.265283565149E+00
  1.242523931412E+00  1.220201270149E+00  1.198296752544E+00  1.176792654602E+00
  1.155672277085E+00  1.134920038234E+00  1.114521428639E+00  1.094463014472E+00
  1.074732429735E+00  1.055318366174E+00  1.036210531913E+00  1.017399488714E+00
  9.988764195008E-01  9.806330673754E-01  9.626617463488E-01  9.449552966275E-01
  9.275070601110E-01  9.103108523120E-01  8.933609343947E-01  8.766519851326E-01
  8.601790729023E-01  8.439376278354E-01  8.279234142498E-01  8.121325034845E-01
  7.965612472597E-01  7.812062516829E-01  7.660643520206E-01  7.511325883495E-01
  7.364081821997E-01  7.218885142902E-01  7.075711034403E-01  6.934535867404E-01
  6.795337011386E-01  6.658092665369E-01  6.522781703574E-01  6.389383536693E-01
  6.257877989105E-01  6.128245192310E-01  6.000465564968E-01  5.874520098007E-01
  5.750390798324E-01  5.628060692138E-01  5.507513651850E-01  5.388734362437E-01
  5.271708240163E-01  5.156421362583E-01  5.042860401035E-01  4.931012556323E-01
  4.820865497560E-01  4.712407304118E-01  4.605626410631E-01  4.500511554985E-01
  4.397051729252E-01  4.295236133484E-01  4.195054132319E-01  4.096495214321E-01
  3.999548953990E-01  3.904204976369E-01  3.810452924169E-01  3.718282427355E-01
  3.627683075100E-01  3.538644390035E-01  3.451155804725E-01  3.365206640293E-01
  3.280786087107E-01  3.197883187459E-01  3.116486820154E-01  3.036585686934E-01
  2.958168300662E-01  2.881222975179E-01  2.805737816776E-01  2.731700717182E-01
  2.659099348019E-01  2.587921156624E-01  2.518153363187E-01  2.449782959124E-01
  2.382796706615E-01  2.317181139235E-01  2.252922563623E-01  2.190007062106E-01
  2.128420496231E-01  2.068148511123E-01  2.009176540634E-01  1.951489813193E-01
  1.895073358330E-01  1.839912013788E-01  1.785990433206E-01  1.733293094278E-01
  1.681804307382E-01  1.631508224593E-01  1.582388849062E-01  1.534430044699E-01
  1.487615546132E-01  1.441928968887E-01  1.397353819760E-01  1.353873507348E-01
  1.311471352695E-01  1.270130600018E-01  1.229834427503E-01  1.190565958110E-01
  1.152308270390E-01  1.115044409266E-01  1.078757396764E-01  1.043430242668E-01
  1.009045955083E-01  9.755875508747E-02  9.430380659807E-02  9.113805655653E-02
  8.805981540087E-02  8.506739847129E-02  8.215912697116E-02  7.933332890711E-02
  7.658834000716E-02  7.392250461576E-02  7.133417656484E-02  6.882172002002E-02
  6.638351030116E-02  6.401793467654E-02  6.172339313015E-02  5.949829910141E-02
  5.734108019683E-02  5.525017887339E-02  5.322405309298E-02  5.126117694781E-02
  4.936004125648E-02  4.751915413051E-02  4.573704151115E-02  4.401224767647E-02
  4.234333571859E-02  4.072888799117E-02  3.916750652703E-02  3.765781342619E-02
  3.619845121439E-02  3.478808317224E-02  3.342539363527E-02  3.210908826520E-02
  3.083789429264E-02  2.961056073168E-02  2.842585856666E-02  2.728258091173E-02
  2.617954314344E-02  2.511558300709E-02  2.408956069726E-02  2.310035891315E-02
  2.214688288938E-02  2.122806040276E-02  2.034284175594E-02  1.949019973842E-02
  1.866912956575E-02  1.787864879776E-02  1.711779723638E-02  1.638563680403E-02
  1.568125140337E-02  1.500374675913E-02  1.435225024291E-02  1.372591068186E-02
  1.312389815199E-02  1.254540375702E-02  1.198963939357E-02  1.145583750363E-02
  1.094325081510E-02  1.045115207122E-02  9.978833749772E-03  9.525607772911E-03
  9.090805208327E-03  8.673775962646E-03  8.273888467793E-03  7.890529361118E-03
  7.523103160001E-03  7.171031931691E-03  6.833754959074E-03  6.510728403047E-03
  6.201424962178E-03  5.905333530268E-03  5.621958852443E-03  5.350821180354E-03
  5.091455927043E-03  4.843413322026E-03  4.606258067072E-03  4.379568993193E-03
  4.162938719267E-03  3.955973312751E-03  3.758291952858E-03  3.569526596603E-03
  3.389321648032E-03  3.217333630997E-03  3.053230865734E-03  2.896693149558E-03
  2.747411441889E-03  2.605087553864E-03  2.469433842719E-03  2.340172911129E-03
  2.217037311674E-03  2.099769256547E-03  1.988120332657E-03  1.881851222198E-03
  1.780731428782E-03  1.684539009196E-03  1.593060310841E-03  1.506089714871E-03
  1.423429385069E-03  1.344889022454E-03  1.270285625616E-03  1.199443256761E-03
  1.132192813447E-03  1.068371805946E-03  1.007824140216E-03  9.503999064079E-04
  8.959551728434E-04  8.443517854081E-04  7.954571722707E-04  7.491441538555E-04
  7.052907579807E-04  6.637800400759E-04  6.244999083867E-04  5.873429540735E-04
  5.522062861084E-04  5.189913708739E-04  4.876038763665E-04  4.579535209054E-04
  4.299539262502E-04  4.035224750278E-04  3.785801723730E-04  3.550515116848E-04
  3.328643444036E-04  3.119497537157E-04  2.922419320907E-04  2.736780625626E-04
  2.561982036630E-04  2.397451779202E-04  2.242644638366E-04  2.097040912614E-04
  1.960145400752E-04  1.831486421057E-04  1.710614861965E-04  1.597103263513E-04
  1.490544928774E-04  1.390553064567E-04  1.296759950695E-04  1.208816137034E-04
  1.126389667754E-04  1.049165332024E-04  9.768439405188E-05  9.091416270879E-05
  8.457891749481E-05  7.865313667783E-05  7.311263581006E-05  6.793450733466E-05
  6.309706240194E-05  5.857977483673E-05  5.436322719975E-05  5.042905888689E-05
  4.675991621058E-05  4.333940440906E-05  4.015204152953E-05  3.718321413228E-05
  3.441913476368E-05  3.184680114656E-05  2.945395703734E-05  2.722905470007E-05
  2.516121894815E-05  2.324021270545E-05  2.145640403919E-05  1.980073461757E-05
  1.826468954627E-05  1.684026853830E-05  1.551995837274E-05  1.429670659863E-05
  1.316389644090E-05  1.211532286644E-05  1.114516976870E-05  1.024798823054E-05
  9.418675825519E-06  8.652456918930E-06  7.944863930541E-06  7.291719522005E-06
  6.689119672721E-06  6.133417608819E-06  5.621208550830E-06  5.149315246492E-06
  4.714774256040E-06  4.314822958211E-06  3.946887246112E-06  3.608569882973E-06
  3.297639488715E-06  3.012020129135E-06  2.749781480418E-06  2.509129542545E-06
  2.288397876040E-06  2.086039337373E-06  1.900618289174E-06  1.730803262266E-06
  1.575360047360E-06  1.433145195054E-06  1.303099903601E-06  1.184244274703E-06
  1.075671918345E-06  9.765448884687E-07  8.860889320026E-07  8.035890345134E-07
  7.283852464430E-07  6.598687745882E-07  5.974783241537E-07  5.406966773652E-07
  4.890474952650E-07  4.420923299291E-07  3.994278349453E-07  3.606831625685E-07
  3.255175365332E-07  2.936179900412E-07  2.646972589675E-07  2.384918208308E-07
  2.147600705581E-07  1.932806245435E-07  1.738507449457E-07  1.562848766032E-07