Te    ONCVPSP-4.0.1  r_core=   2.25420   1.90656   1.80662   2.00001
52.0000     16.0000      220131    zatom,zion,pspd
8      11   3     4   600     0    pspcod,pspxc,lmax,lloc,mmax,r2well
5.99000000  5.00000000  0.00000000    rchrg fchrg qchrg
3     2     2     2     0    nproj
1     1           extension_switch
0                         1.0061920475823E+01  2.3290232104770E+00  3.8137874762498E-01
1  0.0000000000000E+00  5.3651054432446E-10 -9.8851123814248E-10  1.1657153575761E-09
2  1.0000000000000E-02  1.4476870441862E-02  7.6603578998913E-03 -5.7075372241934E-03
3  2.0000000000000E-02  2.9052342883113E-02  1.5171087465792E-02 -1.1273355268078E-02
4  3.0000000000000E-02  4.3823852351580E-02  2.2384502146128E-02 -1.6557767619441E-02
5  4.0000000000000E-02  5.8886512663516E-02  2.9156776297411E-02 -2.1425127578969E-02
6  5.0000000000000E-02  7.4331987508943E-02  3.5349819250356E-02 -2.5745784658139E-02
7  6.0000000000000E-02  9.0247399182108E-02  4.0833082418791E-02 -2.9397965602793E-02
8  7.0000000000000E-02  1.0671428686943E-01  4.5485278304516E-02 -3.2269556300650E-02
9  8.0000000000000E-02  1.2380762587077E-01  4.9195991239752E-02 -3.4259761996710E-02
10  9.0000000000000E-02  1.4159491847024E-01  5.1867160923909E-02 -3.5280624672462E-02
11  1.0000000000000E-01  1.6013536639630E-01  5.3414421240279E-02 -3.5258378127588E-02
12  1.1000000000000E-01  1.7947913392711E-01  5.3768278465016E-02 -3.4134623216960E-02
13  1.2000000000000E-01  1.9966670971381E-01  5.2875114788011E-02 -3.1867307820051E-02
14  1.3000000000000E-01  2.2072837432363E-01  5.0698005033063E-02 -2.8431498430110E-02
15  1.4000000000000E-01  2.4268377935669E-01  4.7217336571544E-02 -2.3819932720400E-02
16  1.5000000000000E-01  2.6554164277802E-01  4.2431224647193E-02 -1.8043345047370E-02
17  1.6000000000000E-01  2.8929956384237E-01  3.6355717644333E-02 -1.1130559554882E-02
18  1.7000000000000E-01  3.1394395968709E-01  2.9024789213631E-02 -3.1283483205319E-03
19  1.8000000000000E-01  3.3945012434266E-01  2.0490116590684E-02  5.8989451991624E-03
20  1.9000000000000E-01  3.6578240957354E-01  1.0820646879183E-02  1.5870014342038E-02
21  2.0000000000000E-01  3.9289452563095E-01  1.0195549222740E-04  2.6687423149804E-02
22  2.1000000000000E-01  4.2072995868584E-01 -1.1564596671886E-02  3.8238657387604E-02
23  2.2000000000000E-01  4.4922250043036E-01 -2.4062898426514E-02  5.0397381391074E-02
24  2.3000000000000E-01  4.7829688410265E-01 -3.7263304749010E-02  6.3024886921750E-02
25  2.4000000000000E-01  5.0786952001671E-01 -5.1024021263778E-02  7.5971717822760E-02
26  2.5000000000000E-01  5.3784932257824E-01 -6.5192641563654E-02  8.9079452053895E-02
27  2.6000000000000E-01  5.6813861975252E-01 -7.9607820373743E-02  1.0218262067690E-01
28  2.7000000000000E-01  5.9863413503002E-01 -9.4101063938954E-02  1.1511074157645E-01
29  2.8000000000000E-01  6.2922803112233E-01 -1.0849861759695E-01  1.2769044416740E-01
30  2.9000000000000E-01  6.5980900392322E-01 -1.2262342929765E-01  1.3974766007220E-01
31  3.0000000000000E-01  6.9026341469343E-01 -1.3629716685876E-01  1.5110985376366E-01
32  3.1000000000000E-01  7.2047644798278E-01 -1.4934226602202E-01  1.6160826647976E-01
33  3.2000000000000E-01  7.5033328249227E-01 -1.6158398590256E-01  1.7108014633305E-01
34  3.3000000000000E-01  7.7972026190614E-01 -1.7285244820887E-01  1.7937093746258E-01
35  3.4000000000000E-01  8.0852605269233E-01 -1.8298463666044E-01  1.8633640131788E-01
36  3.5000000000000E-01  8.3664277597996E-01 -1.9182633334303E-01  1.9184464371938E-01
37  3.6000000000000E-01  8.6396710087342E-01 -1.9923396931537E-01  1.9577802220450E-01
38  3.7000000000000E-01  8.9040128695196E-01 -2.0507636761044E-01  1.9803490933207E-01
39  3.8000000000000E-01  9.1585416422897E-01 -2.0923635785494E-01  1.9853128907758E-01
40  3.9000000000000E-01  9.4024203949911E-01 -2.1161224304565E-01  1.9720216518088E-01
41  4.0000000000000E-01  9.6348951877964E-01 -2.1211910056375E-01  1.9400276230090E-01
42  4.1000000000000E-01  9.8553023644567E-01 -2.1068990125905E-01  1.8890950306020E-01
43  4.2000000000000E-01  1.0063074826577E+00 -2.0727643237583E-01  1.8192074650327E-01
44  4.3000000000000E-01  1.0257747217765E+00 -2.0185001220774E-01  1.7305727612793E-01
45  4.4000000000000E-01  1.0438959956394E+00 -1.9440198662578E-01  1.6236252843447E-01
46  4.5000000000000E-01  1.0606462068229E+00 -1.8494400001314E-01  1.4990255586417E-01
47  4.6000000000000E-01  1.0760112783310E+00 -1.7350803562196E-01  1.3576572101237E-01
48  4.7000000000000E-01  1.0899881874986E+00 -1.6014622292720E-01  1.2006212208812E-01
49  4.8000000000000E-01  1.1025848732928E+00 -1.4493041215242E-01  1.0292275270233E-01
50  4.9000000000000E-01  1.1138200175906E+00 -1.2795151876395E-01  8.4498402178271E-02
51  5.0000000000000E-01  1.1237227024194E+00 -1.0931864333438E-01  6.4958305643453E-02
52  5.1000000000000E-01  1.1323319465311E+00 -8.9157974744196E-02  4.4488556157769E-02
53  5.2000000000000E-01  1.1396961260446E+00 -6.7611487188216E-02  2.3290294017956E-02
54  5.3000000000000E-01  1.1458722851999E+00 -4.4835443852016E-02  1.5776911176436E-03
55  5.4000000000000E-01  1.1509253445283E+00 -2.0998722403831E-02 -2.0424249185610E-02
56  5.5000000000000E-01  1.1549272149234E+00  3.7190204299962E-03 -4.2482053889613E-02
57  5.6000000000000E-01  1.1579558271961E+00  2.9129325978867E-02 -6.4356278909595E-02
58  5.7000000000000E-01  1.1600940876961E+00  5.5037031451605E-02 -8.5804117577573E-02
59  5.8000000000000E-01  1.1614287714704E+00  8.1242465950322E-02 -1.0658209068722E-01
60  5.9000000000000E-01  1.1620493652035E+00  1.0754372084633E-01 -1.2644878840409E-01
61  6.0000000000000E-01  1.1620468728201E+00  1.3373896964446E-01 -1.4516763341063E-01
62  6.1000000000000E-01  1.1615125971393E+00  1.5962881166863E-01 -1.6250963402016E-01
63  6.2000000000000E-01  1.1605369113324E+00  1.8501861339253E-01 -1.7825609571789E-01
64  6.3000000000000E-01  1.1592080341473E+00  2.0972082101070E-01 -1.9220125965750E-01
65  6.4000000000000E-01  1.1576108229302E+00  2.3355721790356E-01 -2.0415483706585E-01
66  6.5000000000000E-01  1.1558255983866E+00  2.5636110099978E-01 -2.1394440928794E-01
67  6.6000000000000E-01  1.1539270147810E+00  2.7797935067681E-01 -2.2141766433199E-01
68  6.7000000000000E-01  1.1519829888873E+00  2.9827436975837E-01 -2.2644444223636E-01
69  6.8000000000000E-01  1.1500537004583E+00  3.1712586836917E-01 -2.2891856338069E-01
70  6.9000000000000E-01  1.1481906763090E+00  3.3443247286114E-01 -2.2875941595525E-01
71  7.0000000000000E-01  1.1464359692816E+00  3.5011313874413E-01 -2.2591328120381E-01
72  7.1000000000000E-01  1.1448214424246E+00  3.6410834949640E-01 -2.2035437770683E-01
73  7.2000000000000E-01  1.1433681676455E+00  3.7638108529445E-01 -2.1208560887215E-01
74  7.3000000000000E-01  1.1420859469293E+00  3.8691754805768E-01 -2.0113900090727E-01
75  7.4000000000000E-01  1.1409729629433E+00  3.9572763172649E-01 -1.8757582182866E-01
76  7.5000000000000E-01  1.1400155644958E+00  4.0284512936581E-01 -1.7148637549671E-01
77  7.6000000000000E-01  1.1391881908953E+00  4.0832767146804E-01 -1.5298946819409E-01
78  7.7000000000000E-01  1.1384534377786E+00  4.1225639270304E-01 -1.3223154887054E-01
79  7.8000000000000E-01  1.1377622654604E+00  4.1473532729264E-01 -1.0938552781035E-01
80  7.9000000000000E-01  1.1370543493171E+00  4.1589053614032E-01 -8.4649282100505E-02
81  8.0000000000000E-01  1.1362585701703E+00  4.1586897179495E-01 -5.8243859848787E-02
82  8.1000000000000E-01  1.1352936410991E+00  4.1483709023974E-01 -3.0411398587912E-02
83  8.2000000000000E-01  1.1340688655987E+00  4.1297922133446E-01 -1.4127766490071E-03
84  8.3000000000000E-01  1.1324850205318E+00  4.1049571248353E-01  2.8474980518816E-02
85  8.4000000000000E-01  1.1304353559126E+00  4.0760086270454E-01  5.8961514133957E-02
86  8.5000000000000E-01  1.1278067022207E+00  4.0452066672701E-01  8.9746138271253E-02
87  8.6000000000000E-01  1.1244806746983E+00  4.0149039100602E-01  1.2052100828994E-01
88  8.7000000000000E-01  1.1203349629341E+00  3.9875200558375E-01  1.5097441916461E-01
89  8.8000000000000E-01  1.1152446930072E+00  3.9655149754302E-01  1.8079419953968E-01
90  8.9000000000000E-01  1.1090838485609E+00  3.9513609334301E-01  2.0967116584636E-01
91  9.0000000000000E-01  1.1017267364076E+00  3.9475141860559E-01  2.3730259969795E-01
92  9.1000000000000E-01  1.0930494816456E+00  3.9563862489649E-01  2.6339571105637E-01
93  9.2000000000000E-01  1.0829315368036E+00  3.9803151372096E-01  2.8767104933453E-01
94  9.3000000000000E-01  1.0712571892203E+00  4.0215368831315E-01  3.0986582467640E-01
95  9.4000000000000E-01  1.0579170507236E+00  4.0821576383217E-01  3.2973710215270E-01
96  9.5000000000000E-01  1.0428095137010E+00  4.1641266629074E-01  3.4706483250980E-01
97  9.6000000000000E-01  1.0258421578399E+00  4.2692104993125E-01  3.6165468441340E-01
98  9.7000000000000E-01  1.0069330921797E+00  4.3989686182678E-01  3.7334064483557E-01
99  9.8000000000000E-01  9.8601221763626E-01  4.5547308124449E-01  3.8198735630707E-01
100  9.9000000000000E-01  9.6302239584214E-01  4.7375765975742E-01  3.8749216220450E-01
101  1.0000000000000E+00  9.3792051097993E-01  4.9483168625825E-01  3.8978683401859E-01
102  1.0100000000000E+00  9.1067841226584E-01  5.1874779892369E-01  3.8883895764228E-01
103  1.0200000000000E+00  8.8128372585646E-01  5.4552886382181E-01  3.8465295909218E-01
104  1.0300000000000E+00  8.4974052619045E-01  5.7516693727626E-01  3.7727075369300E-01
105  1.0400000000000E+00  8.1606985812964E-01  6.0762252631914E-01  3.6677200658712E-01
106  1.0500000000000E+00  7.8031010271700E-01  6.4282415860618E-01  3.5327399643670E-01
107  1.0600000000000E+00  7.4251718090029E-01  6.8066827007895E-01  3.3693107830778E-01
108  1.0700000000000E+00  7.0276459117814E-01  7.2101941544252E-01  3.1793374595461E-01
109  1.0800000000000E+00  6.6114327877788E-01  7.6371080324836E-01  2.9650729797250E-01
110  1.0900000000000E+00  6.1776133566519E-01  8.0854515404289E-01  2.7291011654525E-01
111  1.1000000000000E+00  5.7274353239625E-01  8.5529587670001E-01  2.4743157172373E-01
112  1.1100000000000E+00  5.2623068452428E-01  9.0370855475807E-01  2.2038956826727E-01
113  1.1200000000000E+00  4.7837885796938E-01  9.5350273131729E-01  1.9212775606856E-01
114  1.1300000000000E+00  4.2935841940451E-01  1.0043739779199E+00  1.6301242894415E-01
115  1.1400000000000E+00  3.7935293931844E-01  1.0559962297968E+00  1.3342914015123E-01
116  1.1500000000000E+00  3.2855795693712E-01  1.1080243670222E+00  1.0377906626070E-01
117  1.1600000000000E+00  2.7717961763532E-01  1.1600970184376E+00  7.4475154021167E-02
118  1.1700000000000E+00  2.2543319480264E-01  1.2118395627782E+00  4.5938087475704E-02
119  1.1800000000000E+00  1.7354150935922E-01  1.2628672992312E+00  1.8592114883302E-02
120  1.1900000000000E+00  1.2173326120510E-01  1.3127887577464E+00 -7.1392231362138E-03
121  1.2000000000000E+00  7.0241287843582E-02  1.3612091177898E+00 -3.0837421356594E-02
122  1.2100000000000E+00  1.9300766219981E-02  1.4077337029253E+00 -5.2093349702795E-02
123  1.2200000000000E+00 -3.0852625544566E-02  1.4519715176320E+00 -7.0511560565554E-02
124  1.2300000000000E+00 -7.9984569366550E-02  1.4935387921186E+00 -8.5714519119367E-02
125  1.2400000000000E+00 -1.2786397390737E-01  1.5320625006154E+00 -9.7346712471888E-02
126  1.2500000000000E+00 -1.7426482919372E-01  1.5671838186811E+00 -1.0507859431230E-01
127  1.2600000000000E+00 -2.1896803162667E-01  1.5985614854847E+00 -1.0861032303316E-01
128  1.2700000000000E+00 -2.6176316208386E-01  1.6258750377846E+00 -1.0767525304963E-01
129  1.2800000000000E+00 -3.0245020023163E-01  1.6488278834515E+00 -1.0204314125153E-01
130  1.2900000000000E+00 -3.4084115873892E-01  1.6671501838176E+00 -9.1523033119845E-02
131  1.3000000000000E+00 -3.7676162183200E-01  1.6806015159077E+00 -7.5965796048685E-02
132  1.3100000000000E+00 -4.1005217353402E-01  1.6889732876782E+00 -5.5266270785695E-02
133  1.3200000000000E+00 -4.4056970198624E-01  1.6920908817389E+00 -2.9365015597112E-02
134  1.3300000000000E+00 -4.6818856743620E-01  1.6898155056378E+00  1.7503782562374E-03
135  1.3400000000000E+00 -4.9280162280054E-01  1.6820457296368E+00  3.8044416890012E-02
136  1.3500000000000E+00 -5.1432107713730E-01  1.6687186959416E+00  7.9433292732839E-02
137  1.3600000000000E+00 -5.3267919389180E-01  1.6498109865669E+00  1.2578494012999E-01
138  1.3700000000000E+00 -5.4782881738487E-01  1.6253391403564E+00  1.7691956100284E-01
139  1.3800000000000E+00 -5.5974372269435E-01  1.5953598131445E+00  2.3261061913875E-01
140  1.3900000000000E+00 -5.6841878579566E-01  1.5599695785557E+00  2.9258629689967E-01
141  1.4000000000000E+00 -5.7386997258488E-01  1.5193043704930E+00  3.5653140334959E-01
142  1.4100000000000E+00 -5.7613414716096E-01  1.4735385718943E+00  4.2408971814366E-01
143  1.4200000000000E+00 -5.7526870151211E-01  1.4228837578558E+00  4.9486675094007E-01
144  1.4300000000000E+00 -5.7135101047343E-01  1.3675871046227E+00  5.6843289175763E-01
145  1.4400000000000E+00 -5.6447771751389E-01  1.3079294792546E+00  6.4432692356220E-01
146  1.4500000000000E+00 -5.5476385853765E-01  1.2442232279224E+00  7.2205986451437E-01
147  1.4600000000000E+00 -5.4234183243610E-01  1.1768096837657E+00  8.0111910376856E-01
148  1.4700000000000E+00 -5.2736022858028E-01  1.1060564179818E+00  8.8097279154922E-01
149  1.4800000000000E+00 -5.0998252279886E-01  1.0323542603433E+00  9.6107444142421E-01
150  1.4900000000000E+00 -4.9038565460805E-01  9.5611411756857E-01  1.0408677003486E+00
151  1.5000000000000E+00 -4.6875849955720E-01  8.7776361992759E-01  1.1197912401279E+00
152  1.5100000000000E+00 -4.4530025150038E-01  7.9774362809749E-01  1.1972837225096E+00
153  1.5200000000000E+00 -4.2021873040070E-01  7.1650463359708E-01  1.2727887891529E+00
154  1.5300000000000E+00 -3.9372863190463E-01  6.3450308709066E-01  1.3457600272726E+00
155  1.5400000000000E+00 -3.6604973539069E-01  5.5219768947373E-01  1.4156658617949E+00
156  1.5500000000000E+00 -3.3740508749020E-01  4.7004568091095E-01  1.4819943254197E+00
157  1.5600000000000E+00 -3.0801917819720E-01  3.8849916289920E-01  1.5442576590365E+00
158  1.5700000000000E+00 -2.7811612663151E-01  3.0800148797615E-01  1.6019966964844E+00
159  1.5800000000000E+00 -2.4791789329194E-01  2.2898375088933E-01  1.6547849896684E+00
160  1.5900000000000E+00 -2.1764253524208E-01  1.5186141389874E-01  1.7022326325164E+00
161  1.6000000000000E+00 -1.8750252011216E-01  7.7031097414435E-02  1.7439897451668E+00
162  1.6100000000000E+00 -1.5770311408423E-01  4.8675653881626E-03  1.7797495830814E+00
163  1.6200000000000E+00 -1.2844085816671E-01 -6.4279067188082E-02  1.8092512394397E+00
164  1.6300000000000E+00 -9.9902146060207E-02 -1.3008587966783E-01  1.8322819131746E+00
165  1.6400000000000E+00 -7.2261915791543E-02 -1.9225942158464E-01  1.8486787192802E+00
166  1.6500000000000E+00 -4.5682466052469E-02 -2.5053769929093E-01  1.8583300225432E+00
167  1.6600000000000E+00 -2.0312406838134E-02 -3.0469185673266E-01  1.8611762805612E+00
168  1.6700000000000E+00  3.7142474404335E-03 -3.5452753680727E-01  1.8572103867595E+00
169  1.6800000000000E+00  2.6278835688752E-02 -3.9988591299209E-01  1.8464775090622E+00
170  1.6900000000000E+00  4.7278653567959E-02 -4.4064438424588E-01  1.8290744248558E+00
171  1.7000000000000E+00  6.6627399079050E-02 -4.7671692954524E-01  1.8051483578479E+00
172  1.7100000000000E+00  8.4255458327362E-02 -5.0805412178866E-01  1.7748953273279E+00
173  1.7200000000000E+00  1.0011003109523E-01 -5.3464280413763E-01  1.7385580251131E+00
174  1.7300000000000E+00  1.1415509743122E-01 -5.5650543514590E-01  1.6964232400864E+00
175  1.7400000000000E+00  1.2637122800709E-01 -5.7369911220479E-01  1.6488188546201E+00
176  1.7500000000000E+00  1.3675524248775E-01 -5.8631428588061E-01  1.5961104413218E+00
177  1.7600000000000E+00  1.4531972158860E-01 -5.9447318060689E-01  1.5386974923613E+00
178  1.7700000000000E+00  1.5209237984230E-01 -5.9832793988761E-01  1.4770093171257E+00
179  1.7800000000000E+00  1.5711530733110E-01 -5.9805851654603E-01  1.4115006462923E+00
180  1.7900000000000E+00  1.6044408979107E-01 -5.9387033084723E-01  1.3426469843096E+00
181  1.8000000000000E+00  1.6214681862511E-01 -5.8599172633691E-01  1.2709397907247E+00
182  1.8100000000000E+00  1.6230299635106E-01 -5.7467122176055E-01  1.1968813148788E+00
183  1.8200000000000E+00  1.6100238466081E-01 -5.6017475983295E-01  1.1209805414350E+00
184  1.8300000000000E+00  1.5834384584956E-01 -5.4278313338253E-01  1.0437510788145E+00
185  1.8400000000000E+00  1.5443414288917E-01 -5.2278934232048E-01  9.6570834689929E-01
186  1.8500000000000E+00  1.4938666432739E-01 -5.0049570485211E-01  8.8736489235541E-01
187  1.8600000000000E+00  1.4332012459930E-01 -4.7621095891157E-01  8.0922590076318E-01
188  1.8700000000000E+00  1.3635725030398E-01 -4.5024736683230E-01  7.3178479275150E-01
189  1.8800000000000E+00  1.2862346598758E-01 -4.2291785403975E-01  6.5551897875007E-01
190  1.8900000000000E+00  1.2024559218669E-01 -3.9453320874783E-01  5.8088581234127E-01
191  1.9000000000000E+00  1.1135056801555E-01 -3.6539936838712E-01  5.0831877949125E-01
192  1.9100000000000E+00  1.0206421001930E-01 -3.3581481712775E-01  4.3822395862678E-01
193  1.9200000000000E+00  9.2510018318751E-02 -3.0606811716710E-01  3.7097678322254E-01
194  1.9300000000000E+00  8.2808040260705E-02 -2.7643559451680E-01  3.0691913488649E-01
195  1.9400000000000E+00  7.3073800884056E-02 -2.4717919791186E-01  2.4635679113869E-01
196  1.9500000000000E+00  6.3417308503079E-02 -2.1854454713628E-01  1.8955724797698E-01
197  1.9600000000000E+00  5.3942142657760E-02 -1.9075918464198E-01  1.3674793303350E-01
198  1.9700000000000E+00  4.4744630510587E-02 -1.6403104167351E-01  8.8114820507610E-02
199  1.9800000000000E+00  3.5913116599393E-02 -1.3854712749264E-01  4.3801454787893E-02
200  1.9900000000000E+00  2.7527329625280E-02 -1.1447244752148E-01  3.9083848836546E-03
201  2.0000000000000E+00  1.9657848711954E-02 -9.1949153463855E-02 -3.1506992698091E-02
202  2.0100000000000E+00  1.2365670330787E-02 -7.1095925719016E-02 -6.2430189441727E-02
203  2.0200000000000E+00  5.7018758015389E-03 -5.2007585561058E-02 -8.8888990172861E-02
204  2.0300000000000E+00 -2.9260182905799E-04 -3.4754932152083E-02 -1.1095244343995E-01
205  2.0400000000000E+00 -5.5871140386067E-03 -1.9384796588522E-02 -1.2872949674164E-01
206  2.0500000000000E+00 -1.0161339749970E-02 -5.9203029477732E-03 -1.4236729987481E-01
207  2.0600000000000E+00 -1.4005239546110E-02  5.6386760244650E-03 -1.5204920320046E-01
208  2.0700000000000E+00 -1.7118926784840E-02  1.5314883043841E-02 -1.5799248080472E-01
209  2.0800000000000E+00 -1.9512462107470E-02  2.3152876586260E-02 -1.6044581143549E-01
210  2.0900000000000E+00 -2.1205578601601E-02  2.9218085299881E-02 -1.5968655228648E-01
211  2.1000000000000E+00 -2.2227342525072E-02  3.3595733599646E-02 -1.5601784824622E-01
212  2.1100000000000E+00 -2.2615778373061E-02  3.6389674875231E-02 -1.4976558110128E-01
213  2.1200000000000E+00 -2.2417437812306E-02  3.7721137396011E-02 -1.4127527267750E-01
214  2.1300000000000E+00 -2.1686783637896E-02  3.7727204578973E-02 -1.3090888275534E-01
215  2.1400000000000E+00 -2.0486247486058E-02  3.6560261878409E-02 -1.1904207577837E-01
216  2.1500000000000E+00 -1.8888557022333E-02  3.4387796839659E-02 -1.0605251622391E-01
217  2.1600000000000E+00 -1.6973321741480E-02  3.1387792531457E-02 -9.2318235173335E-02
218  2.1700000000000E+00 -1.4817018152925E-02  2.7740560381678E-02 -7.8233020926725E-02
219  2.1800000000000E+00 -1.2502664891398E-02  2.3637880580429E-02 -6.4195334129741E-02
220  2.1900000000000E+00 -1.0119985165314E-02  1.9282263404331E-02 -5.0604573321323E-02
221  2.2000000000000E+00 -7.7643016463803E-03  1.4884888419739E-02 -3.7858329162430E-02
222  2.2100000000000E+00 -5.5361222498951E-03  1.0664433409872E-02 -2.6349766086429E-02
223  2.2200000000000E+00 -3.5422266039065E-03  6.8489374719023E-03 -1.6471914399652E-02
224  2.2300000000000E+00 -1.8823943578951E-03  3.6497549367112E-03 -8.5613945813183E-03
225  2.2400000000000E+00 -6.8669027537634E-04  1.3340202189068E-03 -3.0571086177426E-03
226  2.2500000000000E+00 -9.3921938619267E-05  1.8254323357218E-04 -4.1033146675526E-04
227  2.2600000000000E+00  3.4050314842194E-05 -6.6467098234957E-05  1.4559268661760E-04
228  2.2700000000000E+00 -5.9858010499799E-06  1.1668005493406E-05 -2.5977298098291E-05
229  2.28 -0.  0. -0.
230  2.29  0. -0.  0.
231  2.30 -0.  0. -0.
232  2.31  0.  0.  0.
233  2.32  0.  0.  0.
234  2.33  0.  0.  0.
235  2.34  0.  0.  0.
236  2.35  0.  0.  0.
237  2.36  0.  0.  0.
238  2.37  0.  0.  0.
239  2.38  0.  0.  0.
240  2.39  0.  0.  0.
241  2.40  0.  0.  0.
242  2.41  0.  0.  0.
243  2.42  0.  0.  0.
244  2.43  0.  0.  0.
245  2.44  0.  0.  0.
246  2.45  0.  0.  0.
247  2.46  0.  0.  0.
248  2.47  0.  0.  0.
249  2.48  0.  0.  0.
250  2.49  0.  0.  0.
251  2.50  0.  0.  0.
252  2.51  0.  0.  0.
253  2.52  0.  0.  0.
254  2.53  0.  0.  0.
255  2.54  0.  0.  0.
256  2.55  0.  0.  0.
257  2.56  0.  0.  0.
258  2.57  0.  0.  0.
259  2.58  0.  0.  0.
260  2.59  0.  0.  0.
261  2.60  0.  0.  0.
262  2.61  0.  0.  0.
263  2.62  0.  0.  0.
264  2.63  0.  0.  0.
265  2.64  0.  0.  0.
266  2.65  0.  0.  0.
267  2.66  0.  0.  0.
268  2.67  0.  0.  0.
269  2.68  0.  0.  0.
270  2.69  0.  0.  0.
271  2.70  0.  0.  0.
272  2.71  0.  0.  0.
273  2.72  0.  0.  0.
274  2.73  0.  0.  0.
275  2.74  0.  0.  0.
276  2.75  0.  0.  0.
277  2.76  0.  0.  0.
278  2.77  0.  0.  0.
279  2.78  0.  0.  0.
280  2.79  0.  0.  0.
281  2.80  0.  0.  0.
282  2.81  0.  0.  0.
283  2.82  0.  0.  0.
284  2.83  0.  0.  0.
285  2.84  0.  0.  0.
286  2.85  0.  0.  0.
287  2.86  0.  0.  0.
288  2.87  0.  0.  0.
289  2.88  0.  0.  0.
290  2.89  0.  0.  0.
291  2.90  0.  0.  0.
292  2.91  0.  0.  0.
293  2.92  0.  0.  0.
294  2.93  0.  0.  0.
295  2.94  0.  0.  0.
296  2.95  0.  0.  0.
297  2.96  0.  0.  0.
298  2.97  0.  0.  0.
299  2.98  0.  0.  0.
300  2.99  0.  0.  0.
301  3.00  0.  0.  0.
302  3.01  0.  0.  0.
303  3.02  0.  0.  0.
304  3.03  0.  0.  0.
305  3.04  0.  0.  0.
306  3.05  0.  0.  0.
307  3.06  0.  0.  0.
308  3.07  0.  0.  0.
309  3.08  0.  0.  0.
310  3.09  0.  0.  0.
311  3.10  0.  0.  0.
312  3.11  0.  0.  0.
313  3.12  0.  0.  0.
314  3.13  0.  0.  0.
315  3.14  0.  0.  0.
316  3.15  0.  0.  0.
317  3.16  0.  0.  0.
318  3.17  0.  0.  0.
319  3.18  0.  0.  0.
320  3.19  0.  0.  0.
321  3.20  0.  0.  0.
322  3.21  0.  0.  0.
323  3.22  0.  0.  0.
324  3.23  0.  0.  0.
325  3.24  0.  0.  0.
326  3.25  0.  0.  0.
327  3.26  0.  0.  0.
328  3.27  0.  0.  0.
329  3.28  0.  0.  0.
330  3.29  0.  0.  0.
331  3.30  0.  0.  0.
332  3.31  0.  0.  0.
333  3.32  0.  0.  0.
334  3.33  0.  0.  0.
335  3.34  0.  0.  0.
336  3.35  0.  0.  0.
337  3.36  0.  0.  0.
338  3.37  0.  0.  0.
339  3.38  0.  0.  0.
340  3.39  0.  0.  0.
341  3.40  0.  0.  0.
342  3.41  0.  0.  0.
343  3.42  0.  0.  0.
344  3.43  0.  0.  0.
345  3.44  0.  0.  0.
346  3.45  0.  0.  0.
347  3.46  0.  0.  0.
348  3.47  0.  0.  0.
349  3.48  0.  0.  0.
350  3.49  0.  0.  0.
351  3.50  0.  0.  0.
352  3.51  0.  0.  0.
353  3.52  0.  0.  0.
354  3.53  0.  0.  0.
355  3.54  0.  0.  0.
356  3.55  0.  0.  0.
357  3.56  0.  0.  0.
358  3.57  0.  0.  0.
359  3.58  0.  0.  0.
360  3.59  0.  0.  0.
361  3.60  0.  0.  0.
362  3.61  0.  0.  0.
363  3.62  0.  0.  0.
364  3.63  0.  0.  0.
365  3.64  0.  0.  0.
366  3.65  0.  0.  0.
367  3.66  0.  0.  0.
368  3.67  0.  0.  0.
369  3.68  0.  0.  0.
370  3.69  0.  0.  0.
371  3.70  0.  0.  0.
372  3.71  0.  0.  0.
373  3.72  0.  0.  0.
374  3.73  0.  0.  0.
375  3.74  0.  0.  0.
376  3.75  0.  0.  0.
377  3.76  0.  0.  0.
378  3.77  0.  0.  0.
379  3.78  0.  0.  0.
380  3.79  0.  0.  0.
381  3.80  0.  0.  0.
382  3.81  0.  0.  0.
383  3.82  0.  0.  0.
384  3.83  0.  0.  0.
385  3.84  0.  0.  0.
386  3.85  0.  0.  0.
387  3.86  0.  0.  0.
388  3.87  0.  0.  0.
389  3.88  0.  0.  0.
390  3.89  0.  0.  0.
391  3.90  0.  0.  0.
392  3.91  0.  0.  0.
393  3.92  0.  0.  0.
394  3.93  0.  0.  0.
395  3.94  0.  0.  0.
396  3.95  0.  0.  0.
397  3.96  0.  0.  0.
398  3.97  0.  0.  0.
399  3.98  0.  0.  0.
400  3.99  0.  0.  0.
401  4.00  0.  0.  0.
402  4.01  0.  0.  0.
403  4.02  0.  0.  0.
404  4.03  0.  0.  0.
405  4.04  0.  0.  0.
406  4.05  0.  0.  0.
407  4.06  0.  0.  0.
408  4.07  0.  0.  0.
409  4.08  0.  0.  0.
410  4.09  0.  0.  0.
411  4.10  0.  0.  0.
412  4.11  0.  0.  0.
413  4.12  0.  0.  0.
414  4.13  0.  0.  0.
415  4.14  0.  0.  0.
416  4.15  0.  0.  0.
417  4.16  0.  0.  0.
418  4.17  0.  0.  0.
419  4.18  0.  0.  0.
420  4.19  0.  0.  0.
421  4.20  0.  0.  0.
422  4.21  0.  0.  0.
423  4.22  0.  0.  0.
424  4.23  0.  0.  0.
425  4.24  0.  0.  0.
426  4.25  0.  0.  0.
427  4.26  0.  0.  0.
428  4.27  0.  0.  0.
429  4.28  0.  0.  0.
430  4.29  0.  0.  0.
431  4.30  0.  0.  0.
432  4.31  0.  0.  0.
433  4.32  0.  0.  0.
434  4.33  0.  0.  0.
435  4.34  0.  0.  0.
436  4.35  0.  0.  0.
437  4.36  0.  0.  0.
438  4.37  0.  0.  0.
439  4.38  0.  0.  0.
440  4.39  0.  0.  0.
441  4.40  0.  0.  0.
442  4.41  0.  0.  0.
443  4.42  0.  0.  0.
444  4.43  0.  0.  0.
445  4.44  0.  0.  0.
446  4.45  0.  0.  0.
447  4.46  0.  0.  0.
448  4.47  0.  0.  0.
449  4.48  0.  0.  0.
450  4.49  0.  0.  0.
451  4.50  0.  0.  0.
452  4.51  0.  0.  0.
453  4.52  0.  0.  0.
454  4.53  0.  0.  0.
455  4.54  0.  0.  0.
456  4.55  0.  0.  0.
457  4.56  0.  0.  0.
458  4.57  0.  0.  0.
459  4.58  0.  0.  0.
460  4.59  0.  0.  0.
461  4.60  0.  0.  0.
462  4.61  0.  0.  0.
463  4.62  0.  0.  0.
464  4.63  0.  0.  0.
465  4.64  0.  0.  0.
466  4.65  0.  0.  0.
467  4.66  0.  0.  0.
468  4.67  0.  0.  0.
469  4.68  0.  0.  0.
470  4.69  0.  0.  0.
471  4.70  0.  0.  0.
472  4.71  0.  0.  0.
473  4.72  0.  0.  0.
474  4.73  0.  0.  0.
475  4.74  0.  0.  0.
476  4.75  0.  0.  0.
477  4.76  0.  0.  0.
478  4.77  0.  0.  0.
479  4.78  0.  0.  0.
480  4.79  0.  0.  0.
481  4.80  0.  0.  0.
482  4.81  0.  0.  0.
483  4.82  0.  0.  0.
484  4.83  0.  0.  0.
485  4.84  0.  0.  0.
486  4.85  0.  0.  0.
487  4.86  0.  0.  0.
488  4.87  0.  0.  0.
489  4.88  0.  0.  0.
490  4.89  0.  0.  0.
491  4.90  0.  0.  0.
492  4.91  0.  0.  0.
493  4.92  0.  0.  0.
494  4.93  0.  0.  0.
495  4.94  0.  0.  0.
496  4.95  0.  0.  0.
497  4.96  0.  0.  0.
498  4.97  0.  0.  0.
499  4.98  0.  0.  0.
500  4.99  0.  0.  0.
501  5.00  0.  0.  0.
502  5.01  0.  0.  0.
503  5.02  0.  0.  0.
504  5.03  0.  0.  0.
505  5.04  0.  0.  0.
506  5.05  0.  0.  0.
507  5.06  0.  0.  0.
508  5.07  0.  0.  0.
509  5.08  0.  0.  0.
510  5.09  0.  0.  0.
511  5.10  0.  0.  0.
512  5.11  0.  0.  0.
513  5.12  0.  0.  0.
514  5.13  0.  0.  0.
515  5.14  0.  0.  0.
516  5.15  0.  0.  0.
517  5.16  0.  0.  0.
518  5.17  0.  0.  0.
519  5.18  0.  0.  0.
520  5.19  0.  0.  0.
521  5.20  0.  0.  0.
522  5.21  0.  0.  0.
523  5.22  0.  0.  0.
524  5.23  0.  0.  0.
525  5.24  0.  0.  0.
526  5.25  0.  0.  0.
527  5.26  0.  0.  0.
528  5.27  0.  0.  0.
529  5.28  0.  0.  0.
530  5.29  0.  0.  0.
531  5.30  0.  0.  0.
532  5.31  0.  0.  0.
533  5.32  0.  0.  0.
534  5.33  0.  0.  0.
535  5.34  0.  0.  0.
536  5.35  0.  0.  0.
537  5.36  0.  0.  0.
538  5.37  0.  0.  0.
539  5.38  0.  0.  0.
540  5.39  0.  0.  0.
541  5.40  0.  0.  0.
542  5.41  0.  0.  0.
543  5.42  0.  0.  0.
544  5.43  0.  0.  0.
545  5.44  0.  0.  0.
546  5.45  0.  0.  0.
547  5.46  0.  0.  0.
548  5.47  0.  0.  0.
549  5.48  0.  0.  0.
550  5.49  0.  0.  0.
551  5.50  0.  0.  0.
552  5.51  0.  0.  0.
553  5.52  0.  0.  0.
554  5.53  0.  0.  0.
555  5.54  0.  0.  0.
556  5.55  0.  0.  0.
557  5.56  0.  0.  0.
558  5.57  0.  0.  0.
559  5.58  0.  0.  0.
560  5.59  0.  0.  0.
561  5.60  0.  0.  0.
562  5.61  0.  0.  0.
563  5.62  0.  0.  0.
564  5.63  0.  0.  0.
565  5.64  0.  0.  0.
566  5.65  0.  0.  0.
567  5.66  0.  0.  0.
568  5.67  0.  0.  0.
569  5.68  0.  0.  0.
570  5.69  0.  0.  0.
571  5.70  0.  0.  0.
572  5.71  0.  0.  0.
573  5.72  0.  0.  0.
574  5.73  0.  0.  0.
575  5.74  0.  0.  0.
576  5.75  0.  0.  0.
577  5.76  0.  0.  0.
578  5.77  0.  0.  0.
579  5.78  0.  0.  0.
580  5.79  0.  0.  0.
581  5.80  0.  0.  0.
582  5.81  0.  0.  0.
583  5.82  0.  0.  0.
584  5.83  0.  0.  0.
585  5.84  0.  0.  0.
586  5.85  0.  0.  0.
587  5.86  0.  0.  0.
588  5.87  0.  0.  0.
589  5.88  0.  0.  0.
590  5.89  0.  0.  0.
591  5.90  0.  0.  0.
592  5.91  0.  0.  0.
593  5.92  0.  0.  0.
594  5.93  0.  0.  0.
595  5.94  0.  0.  0.
596  5.95  0.  0.  0.
597  5.96  0.  0.  0.
598  5.97  0.  0.  0.
599  5.98  0.  0.  0.
600  5.99  0.  0.  0.
1                         5.4384011836834E+00  9.0880407608205E-01
1  0.0000000000000E+00  3.7301213159924E-09 -6.3671356381745E-09
2  1.0000000000000E-02  8.5561197609441E-04 -9.9385801154424E-04
3  2.0000000000000E-02  3.4126189637508E-03 -3.9592083207552E-03
4  3.0000000000000E-02  7.6416797828827E-03 -8.8476262497762E-03
5  4.0000000000000E-02  1.3494375845373E-02 -1.5579222085859E-02
6  5.0000000000000E-02  2.0903928923309E-02 -2.4043855734983E-02
7  6.0000000000000E-02  2.9786191529287E-02 -3.4102812472883E-02
8  7.0000000000000E-02  4.0040895655638E-02 -4.5590915446316E-02
9  8.0000000000000E-02  5.1553141889304E-02 -5.8319044210246E-02
10  9.0000000000000E-02  6.4195107439107E-02 -7.2077022650281E-02
11  1.0000000000000E-01  7.7827948431133E-02 -8.6636834217753E-02
12  1.1000000000000E-01  9.2303868990259E-02 -1.0175611757393E-01
13  1.2000000000000E-01  1.0746832717146E-01 -1.1718189156849E-01
14  1.3000000000000E-01  1.2316234576823E-01 -1.3265445502505E-01
15  1.4000000000000E-01  1.3922489443602E-01 -1.4791140412298E-01
16  1.5000000000000E-01  1.5549530844932E-01 -1.6269170828911E-01
17  1.6000000000000E-01  1.7181570877805E-01 -1.7673978447308E-01
18  1.7000000000000E-01  1.8803338803236E-01 -1.8980950949296E-01
19  1.8000000000000E-01  2.0400312718800E-01 -2.0166811080801E-01
20  1.9000000000000E-01  2.1958940886319E-01 -2.1209987759595E-01
21  2.0000000000000E-01  2.3466849426166E-01 -2.2090963636465E-01