<?xml version="1.0" encoding="UTF-8" ?>
<psml version="1.1" energy_unit="hartree" length_unit="bohr"
 uuid="50273540-c73e-11ed-66b1-f580ff71f1c6"
 xmlns="http://esl.cecam.org/PSML/ns/1.1">
<provenance creator="ONCVPSP-4.0.1+psml-4.0.1-76 (scalar-relativistic)"
 date="2023-03-20">
<annotation action="semilocal-pseudopotential-generation"
 action-cont="projectors-generation" />
<input-file name="oncvpsp-input">
<![CDATA[# atsym z nc nv iexc psfile
Te 52 6 5 4 both
# n l f
1 0 2.0
2 0 2.0
2 1 6.0
3 0 2.0
3 1 6.0
3 2 10.0
4 0 2.0
4 1 6.0
4 2 10.0
5 0 2.0
5 1 4.0
# lmax
3
# l rc ep ncon nbas qcut
0 1.3 0.0 4 8 9.4
1 1.3 0.0 4 8 9.6
2 1.5 0.0 4 8 10.0
3 1.8 0.05 4 8 6.0
# lloc lpopt rc5 dvloc0
4 5 1.3 0.0
# l nproj debl
0 2 3.0
1 2 3.5
2 2 1.6
3 2 4.0
# icmod fcfact rcfact
3 5.0 1.5
# epsh1 epsh2 depsh
-12.0 12.0 0.02
# rlmax drl
6.0 0.01
 0
]]>
</input-file>
</provenance>
<pseudo-atom-spec atomic-label="Te" atomic-number="52" z-pseudo="24"
 flavor="Hamann&apos;s oncvpsp" relativity="scalar" spin-dft="no"
 core-corrections="yes">
<annotation pseudo-energy="-268.366535352" cutoff_hint_low="39"
 cutoff_hint_normal="42" cutoff_hint_high="45" />
<exchange-correlation>
<annotation oncvpsp-xc-code="4" oncvpsp-xc-type="GGA -- Perdew-Burke-Ernzerhof" />
<libxc-info number-of-functionals="2">
<functional name="Perdew, Burke &amp; Ernzerhof (GGA)" type="exchange" id="101" />
<functional name="Perdew, Burke &amp; Ernzerhof (GGA)" type="correlation"
 id="130" />
</libxc-info>
</exchange-correlation>
<valence-configuration total-valence-charge="24">
<shell n="4" l="s" occupation="2" />
<shell n="4" l="p" occupation="6" />
<shell n="4" l="d" occupation="10" />
<shell n="5" l="s" occupation="2" />
<shell n="5" l="p" occupation="4" />
</valence-configuration>
</pseudo-atom-spec>
<grid npts="797">
<annotation type="sampled from oncvpsp log grid"
 recipe="r(i:1..N) = r1*exp(a*(i-1)) + r=0; resampled"
 recipe-cont="r1: scale; a: step" scale="0.961538461538E-05"
 step="0.598207167755E-02" delta="0.500000000000E-02" rmax="44.6051688792" />
<grid-data>
  0.000000000000E+00  5.017120058604E-03  1.004200092945E-02  1.508283382330E-02
  2.009953548832E-02  2.522953743384E-02  3.037013276145E-02  3.548086418588E-02
  4.071437249694E-02  4.588886964498E-02  5.110589673098E-02  5.623914435990E-02
  6.151887931687E-02  6.689291866307E-02  7.230259667183E-02  7.768365725326E-02
  8.296739442339E-02  8.808201852643E-02  9.351193973981E-02  9.868448800241E-02
  1.041431521942E-01  1.092482690059E-01  1.146036395991E-01  1.202215314611E-01
  1.253626376079E-01  1.307235959900E-01  1.363138082815E-01  1.421430782063E-01
  1.473376031120E-01  1.527219584992E-01  1.583030815977E-01  1.640881631534E-01
  1.700846566934E-01  1.752487953570E-01  1.805697284584E-01  1.860522166165E-01
  1.917011649928E-01  1.975216276802E-01  2.035188122248E-01  2.096980842850E-01
  2.147763145449E-01  2.199775236230E-01  2.253046896808E-01  2.307608630013E-01
  2.363491677362E-01  2.420728036941E-01  2.479350481730E-01  2.539392578367E-01
  2.600888706371E-01  2.663874077824E-01  2.728384757532E-01  2.794457683680E-01
  2.845060327019E-01  2.896579293954E-01  2.949031177470E-01  3.002432871023E-01
  3.056801573977E-01  3.112154797147E-01  3.168510368439E-01  3.225886438589E-01
  3.284301487011E-01  3.343774327747E-01  3.404324115529E-01  3.465970351947E-01
  3.528732891729E-01  3.592631949139E-01  3.657688104483E-01  3.723922310739E-01
  3.791355900309E-01  3.860010591885E-01  3.929908497445E-01  4.001072129377E-01
  4.073524407728E-01  4.147288667584E-01  4.222388666591E-01  4.273209336582E-01
  4.324641684157E-01  4.376693071468E-01  4.429370949276E-01  4.482682858021E-01
  4.536636428900E-01  4.591239384959E-01  4.646499542196E-01  4.702424810686E-01
  4.759023195707E-01  4.816302798891E-01  4.874271819378E-01  4.932938554996E-01
  4.992311403444E-01  5.052398863496E-01  5.113209536217E-01  5.174752126195E-01
  5.237035442786E-01  5.300068401375E-01  5.363860024654E-01  5.428419443911E-01
  5.493755900338E-01  5.559878746354E-01  5.626797446946E-01  5.694521581017E-01
  5.763060842766E-01  5.832425043070E-01  5.902624110888E-01  5.973668094687E-01
  6.045567163874E-01  6.118331610259E-01  6.191971849520E-01  6.266498422701E-01
  6.341921997716E-01  6.418253370881E-01  6.495503468453E-01  6.573683348199E-01
  6.652804200978E-01  6.732877352341E-01  6.813914264154E-01  6.895926536237E-01
  6.978925908027E-01  7.062924260256E-01  7.147933616653E-01  7.233966145663E-01
  7.321034162192E-01  7.409150129368E-01  7.498326660325E-01  7.588576520009E-01
  7.679912627003E-01  7.772348055382E-01  7.865896036577E-01  7.960569961273E-01
  8.056383381327E-01  8.153350011704E-01  8.251483732445E-01  8.350798590649E-01
  8.400903382193E-01  8.451308802486E-01  8.502016655301E-01  8.553028755233E-01
  8.604346927764E-01  8.655973009331E-01  8.707908847387E-01  8.760156300471E-01
  8.812717238274E-01  8.865593541704E-01  8.918787102954E-01  8.972299825571E-01
  9.026133624525E-01  9.080290426272E-01  9.134772168830E-01  9.189580801843E-01
  9.244718286654E-01  9.300186596374E-01  9.355987715952E-01  9.412123642248E-01
  9.468596384101E-01  9.525407962406E-01  9.582560410180E-01  9.640055772641E-01
  9.697896107277E-01  9.756083483921E-01  9.814619984824E-01  9.873507704733E-01
  9.932748750962E-01  9.992345243467E-01  1.005229931493E+00  1.011261311082E+00
  1.017328878948E+00  1.023432852222E+00  1.029573449335E+00  1.035750890031E+00
  1.041965395371E+00  1.048217187744E+00  1.054506490870E+00  1.060833529815E+00
  1.067198530994E+00  1.073601722180E+00  1.080043332513E+00  1.086523592508E+00
  1.093042734063E+00  1.099600990468E+00  1.106198596411E+00  1.112835787989E+00
  1.119512802717E+00  1.126229879533E+00  1.132987258811E+00  1.139785182363E+00
  1.146623893458E+00  1.153503636818E+00  1.160424658639E+00  1.167387206591E+00
  1.174391529831E+00  1.181437879010E+00  1.188526506284E+00  1.195657665321E+00
  1.202831611313E+00  1.210048600981E+00  1.217308892587E+00  1.224612745943E+00
  1.231960422418E+00  1.239352184953E+00  1.246788298062E+00  1.254269027851E+00
  1.261794642018E+00  1.269365409870E+00  1.276981602329E+00  1.284643491943E+00
  1.292351352895E+00  1.300105461012E+00  1.307906093778E+00  1.315753530341E+00
  1.323648051523E+00  1.331589939832E+00  1.339579479471E+00  1.347616956348E+00
  1.355702658086E+00  1.363836874035E+00  1.372019895279E+00  1.380252014651E+00
  1.388533526738E+00  1.396864727899E+00  1.405245916266E+00  1.413677391764E+00
  1.422159456114E+00  1.430692412851E+00  1.439276567328E+00  1.447912226732E+00
  1.456599700093E+00  1.465339298293E+00  1.474131334083E+00  1.482976122087E+00
  1.491873978820E+00  1.500825222693E+00  1.509830174029E+00  1.518889155073E+00
  1.528002490004E+00  1.537170504944E+00  1.546393527973E+00  1.555671889141E+00
  1.565005920476E+00  1.574395955999E+00  1.583842331735E+00  1.593345385725E+00
  1.602905458040E+00  1.612522890788E+00  1.622198028133E+00  1.631931216301E+00
  1.641722803599E+00  1.651573140421E+00  1.661482579263E+00  1.671451474739E+00
  1.681480183587E+00  1.691569064689E+00  1.701718479077E+00  1.711928789951E+00
  1.722200362691E+00  1.732533564867E+00  1.742928766256E+00  1.753386338854E+00
  1.763906656887E+00  1.774490096828E+00  1.785137037409E+00  1.795847859634E+00
  1.806622946792E+00  1.817462684472E+00  1.828367460579E+00  1.839337665343E+00
  1.850373691335E+00  1.861475933483E+00  1.872644789084E+00  1.883880657818E+00
  1.895183941765E+00  1.906555045416E+00  1.917994375688E+00  1.929502341942E+00
  1.941079355994E+00  1.952725832130E+00  1.964442187123E+00  1.976228840245E+00
  1.988086213287E+00  2.000014730567E+00  2.012014818950E+00  2.024086907864E+00
  2.036231429311E+00  2.048448817887E+00  2.060739510794E+00  2.073103947859E+00
  2.085542571546E+00  2.098055826975E+00  2.110644161937E+00  2.123308026909E+00
  2.136047875070E+00  2.148864162321E+00  2.161757347295E+00  2.174727891378E+00
  2.187776258727E+00  2.200902916279E+00  2.214108333777E+00  2.227392983779E+00
  2.240757341682E+00  2.254201885732E+00  2.267727097047E+00  2.281333459629E+00
  2.295021460387E+00  2.308791589149E+00  2.322644338684E+00  2.336580204716E+00
  2.350599685944E+00  2.364703284060E+00  2.378891503764E+00  2.393164852787E+00
  2.407523841903E+00  2.421968984955E+00  2.436500798865E+00  2.451119803658E+00
  2.465826522480E+00  2.480621481615E+00  2.495505210504E+00  2.510478241767E+00
  2.525541111218E+00  2.540694357885E+00  2.555938524033E+00  2.571274155177E+00
  2.586701800108E+00  2.602222010909E+00  2.617835342974E+00  2.633542355032E+00
  2.649343609162E+00  2.665239670817E+00  2.681231108842E+00  2.697318495495E+00
  2.713502406468E+00  2.729783420907E+00  2.746162121432E+00  2.762639094161E+00
  2.779214928726E+00  2.795890218298E+00  2.812665559608E+00  2.829541552965E+00
  2.846518802283E+00  2.863597915097E+00  2.880779502588E+00  2.898064179603E+00
  2.915452564681E+00  2.932945280069E+00  2.950542951749E+00  2.968246209460E+00
  2.986055686716E+00  3.003972020837E+00  3.021995852962E+00  3.040127828080E+00
  3.058368595048E+00  3.076718806618E+00  3.095179119458E+00  3.113750194175E+00
  3.132432695340E+00  3.151227291512E+00  3.170134655261E+00  3.189155463192E+00
  3.208290395972E+00  3.227540138347E+00  3.246905379178E+00  3.266386811453E+00
  3.285985132321E+00  3.305701043115E+00  3.325535249374E+00  3.345488460870E+00
  3.365561391635E+00  3.385754759985E+00  3.406069288545E+00  3.426505704276E+00
  3.447064738502E+00  3.467747126933E+00  3.488553609695E+00  3.509484931353E+00
  3.530541840941E+00  3.551725091987E+00  3.573035442539E+00  3.594473655194E+00
  3.616040497125E+00  3.637736740108E+00  3.659563160548E+00  3.681520539512E+00
  3.703609662749E+00  3.725831320725E+00  3.748186308650E+00  3.770675426501E+00
  3.793299479060E+00  3.816059275935E+00  3.838955631590E+00  3.861989365380E+00
  3.885161301572E+00  3.908472269382E+00  3.931923102998E+00  3.955514641616E+00
  3.979247729466E+00  4.003123215842E+00  4.027141955137E+00  4.051304806868E+00
  4.075612635710E+00  4.100066311524E+00  4.124666709393E+00  4.149414709649E+00
  4.174311197907E+00  4.199357065095E+00  4.224553207485E+00  4.249900526730E+00
  4.275399929890E+00  4.301052329470E+00  4.326858643447E+00  4.352819795307E+00
  4.378936714079E+00  4.405210334364E+00  4.431641596370E+00  4.458231445948E+00
  4.484980834624E+00  4.511890719631E+00  4.538962063949E+00  4.566195836333E+00
  4.593593011351E+00  4.621154569419E+00  4.648881496836E+00  4.676774785817E+00
  4.704835434531E+00  4.733064447139E+00  4.761462833822E+00  4.790031610824E+00
  4.818771800489E+00  4.847684431292E+00  4.876770537880E+00  4.906031161107E+00
  4.935467348074E+00  4.965080152162E+00  4.994870633075E+00  5.024839856874E+00
  5.054988896015E+00  5.085318829391E+00  5.115830742368E+00  5.146525726822E+00
  5.177404881183E+00  5.208469310470E+00  5.239720126333E+00  5.271158447091E+00
  5.302785397773E+00  5.334602110160E+00  5.366609722821E+00  5.398809381158E+00
  5.431202237445E+00  5.463789450869E+00  5.496572187574E+00  5.529551620700E+00
  5.562728930424E+00  5.596105304007E+00  5.629681935831E+00  5.663460027446E+00
  5.697440787610E+00  5.731625432336E+00  5.766015184930E+00  5.800611276040E+00
  5.835414943696E+00  5.870427433358E+00  5.905649997958E+00  5.941083897946E+00
  5.976730401334E+00  6.012590783742E+00  6.048666328444E+00  6.084958326415E+00
  6.121468076373E+00  6.158196884831E+00  6.195146066140E+00  6.232316942537E+00
  6.269710844193E+00  6.307329109258E+00  6.345173083913E+00  6.383244122417E+00
  6.421543587151E+00  6.460072848674E+00  6.498833285766E+00  6.537826285481E+00
  6.577053243194E+00  6.616515562653E+00  6.656214656029E+00  6.696151943965E+00
  6.736328855629E+00  6.776746828762E+00  6.817407309735E+00  6.858311753593E+00
  6.899461624115E+00  6.940858393860E+00  6.982503544223E+00  7.024398565488E+00
  7.066544956881E+00  7.108944226622E+00  7.151597891982E+00  7.194507479334E+00
  7.237674524210E+00  7.281100571355E+00  7.324787174783E+00  7.368735897832E+00
  7.412948313219E+00  7.457426003098E+00  7.502170559117E+00  7.547183582472E+00
  7.592466683967E+00  7.638021484070E+00  7.683849612975E+00  7.729952710653E+00
  7.776332426917E+00  7.822990421478E+00  7.869928364007E+00  7.917147934191E+00
  7.964650821796E+00  8.012438726727E+00  8.060513359087E+00  8.108876439242E+00
  8.157529697877E+00  8.206474876064E+00  8.255713725321E+00  8.305248007673E+00
  8.355079495719E+00  8.405209972693E+00  8.455641232529E+00  8.506375079924E+00
  8.557413330404E+00  8.608757810386E+00  8.660410357249E+00  8.712372819392E+00
  8.764647056309E+00  8.817234938646E+00  8.870138348278E+00  8.923359178368E+00
  8.976899333438E+00  9.030760729439E+00  9.084945293815E+00  9.139454965578E+00
  9.194291695372E+00  9.249457445544E+00  9.304954190217E+00  9.360783915359E+00
  9.416948618851E+00  9.473450310564E+00  9.530291012427E+00  9.587472758502E+00
  9.644997595053E+00  9.702867580623E+00  9.761084786107E+00  9.819651294824E+00
  9.878569202592E+00  9.937840617808E+00  9.997467661515E+00  1.005745246748E+01
  1.011779718229E+01  1.017850396538E+01  1.023957498917E+01  1.030101243911E+01
  1.036281851374E+01  1.042499542483E+01  1.048754539738E+01  1.055047066976E+01
  1.061377349378E+01  1.067745613474E+01  1.074152087155E+01  1.080596999678E+01
  1.087080581676E+01  1.093603065166E+01  1.100164683557E+01  1.106765671658E+01
  1.113406265688E+01  1.120086703282E+01  1.126807223502E+01  1.133568066843E+01
  1.140369475244E+01  1.147211692096E+01  1.154094962248E+01  1.161019532022E+01
  1.167985649214E+01  1.174993563109E+01  1.182043524488E+01  1.189135785635E+01
  1.196270600349E+01  1.203448223951E+01  1.210668913294E+01  1.217932926774E+01
  1.225240524335E+01  1.232591967481E+01  1.239987519286E+01  1.247427444401E+01
  1.254912009068E+01  1.262441481122E+01  1.270016130009E+01  1.277636226789E+01
  1.285302044150E+01  1.293013856415E+01  1.300771939553E+01  1.308576571190E+01
  1.316428030618E+01  1.324326598801E+01  1.332272558394E+01  1.340266193744E+01
  1.348307790907E+01  1.356397637652E+01  1.364536023478E+01  1.372723239619E+01
  1.380959579057E+01  1.389245336531E+01  1.397580808550E+01  1.405966293402E+01
  1.414402091162E+01  1.422888503709E+01  1.431425834731E+01  1.440014389740E+01
  1.448654476078E+01  1.457346402935E+01  1.466090481352E+01  1.474887024240E+01
  1.483736346386E+01  1.492638764464E+01  1.501594597051E+01  1.510604164633E+01
  1.519667789621E+01  1.528785796359E+01  1.537958511137E+01  1.547186262204E+01
  1.556469379777E+01  1.565808196056E+01  1.575203045232E+01  1.584654263503E+01
  1.594162189084E+01  1.603727162219E+01  1.613349525192E+01  1.623029622343E+01
  1.632767800077E+01  1.642564406878E+01  1.652419793319E+01  1.662334312079E+01
  1.672308317951E+01  1.682342167859E+01  1.692436220866E+01  1.702590838192E+01
  1.712806383221E+01  1.723083221520E+01  1.733421720849E+01  1.743822251174E+01
  1.754285184681E+01  1.764810895789E+01  1.775399761164E+01  1.786052159731E+01
  1.796768472689E+01  1.807549083526E+01  1.818394378027E+01  1.829304744295E+01
  1.840280572761E+01  1.851322256197E+01  1.862430189734E+01  1.873604770873E+01
  1.884846399498E+01  1.896155477895E+01  1.907532410762E+01  1.918977605227E+01
  1.930491470858E+01  1.942074419684E+01  1.953726866202E+01  1.965449227399E+01
  1.977241922763E+01  1.989105374300E+01  2.001040006546E+01  2.013046246585E+01
  2.025124524064E+01  2.037275271209E+01  2.049498922836E+01  2.061795916373E+01
  2.074166691871E+01  2.086611692022E+01  2.099131362175E+01  2.111726150348E+01
  2.124396507250E+01  2.137142886293E+01  2.149965743611E+01  2.162865538073E+01
  2.175842731301E+01  2.188897787689E+01  2.202031174415E+01  2.215243361462E+01
  2.228534821630E+01  2.241906030560E+01  2.255357466743E+01  2.268889611544E+01
  2.282502949213E+01  2.296197966908E+01  2.309975154710E+01  2.323835005638E+01
  2.337778015672E+01  2.351804683766E+01  2.365915511869E+01  2.380111004940E+01
  2.394391670969E+01  2.408758020995E+01  2.423210569121E+01  2.437749832536E+01
  2.452376331531E+01  2.467090589520E+01  2.481893133058E+01  2.496784491856E+01
  2.511765198807E+01  2.526835790000E+01  2.541996804740E+01  2.557248785568E+01
  2.572592278282E+01  2.588027831951E+01  2.603555998943E+01  2.619177334937E+01
  2.634892398946E+01  2.650701753340E+01  2.666605963860E+01  2.682605599643E+01
  2.698701233241E+01  2.714893440641E+01  2.731182801284E+01  2.747569898092E+01
  2.764055317481E+01  2.780639649386E+01  2.797323487282E+01  2.814107428206E+01
  2.830992072775E+01  2.847978025211E+01  2.865065893363E+01  2.882256288723E+01
  2.899549826455E+01  2.916947125414E+01  2.934448808166E+01  2.952055501015E+01
  2.969767834022E+01  2.987586441026E+01  3.005511959672E+01  3.023545031430E+01
  3.041686301618E+01  3.059936419428E+01  3.078296037945E+01  3.096765814172E+01
  3.115346409057E+01  3.134038487512E+01  3.152842718437E+01  3.171759774747E+01
  3.190790333396E+01  3.209935075396E+01  3.229194685849E+01  3.248569853964E+01
  3.268061273088E+01  3.287669640726E+01  3.307395658570E+01  3.327240032522E+01
  3.347203472717E+01  3.367286693553E+01  3.387490413715E+01  3.407815356197E+01
  3.428262248334E+01  3.448831821824E+01  3.469524812755E+01  3.490341961632E+01
  3.511284013401E+01  3.532351717482E+01  3.553545827787E+01  3.574867102753E+01
  3.596316305370E+01  3.617894203202E+01  3.639601568421E+01  3.661439177832E+01
  3.683407812899E+01  3.705508259776E+01  3.727741309335E+01  3.750107757191E+01
  3.772608403734E+01  3.795244054156E+01  3.818015518481E+01  3.840923611592E+01
  3.863969153262E+01  3.887152968181E+01  3.910475885990E+01  3.933938741306E+01
  3.957542373754E+01  3.981287627997E+01  4.005175353765E+01  4.029206405887E+01
  4.053381644323E+01  4.077701934189E+01  4.102168145794E+01  4.126781154669E+01
  4.151541841597E+01  4.176451092646E+01  4.201509799202E+01  4.226718857997E+01
  4.252079171145E+01  4.277591646172E+01  4.303257196049E+01  4.329076739225E+01
  4.355051199661E+01  4.381181506859E+01  4.407468595900E+01  4.433913407475E+01
  4.460516887920E+01
</grid-data>
</grid>
<valence-charge total-charge="24" is-unscreening-charge="yes"
 rescaled-to-z-pseudo="no">
<radfunc>
<data npts="797">
  1.017902325153E+01  1.018558452450E+01  1.020530839626E+01  1.023831854316E+01
  1.028431745790E+01  1.034491384527E+01  1.041938201532E+01  1.050705126410E+01
  1.061090473856E+01  1.072758064833E+01  1.085928734969E+01  1.100265329105E+01
  1.116434330020E+01  1.134371829909E+01  1.153932927027E+01  1.174884680287E+01
  1.196903567174E+01  1.219578380376E+01  1.245110770996E+01  1.270825679866E+01
  1.299430067371E+01  1.327538343900E+01  1.358425630909E+01  1.392359006569E+01
  1.424777238924E+01  1.459959858485E+01  1.498132240302E+01  1.539535520409E+01
  1.577790180631E+01  1.618778964456E+01  1.662682340943E+01  1.709689479206E+01
  1.759997933381E+01  1.804591458960E+01  1.851742754456E+01  1.901577471745E+01
  1.954223688024E+01  2.009811199600E+01  2.068470644119E+01  2.130332424271E+01
  2.182214216259E+01  2.236292663470E+01  2.292630530854E+01  2.351288033966E+01
  2.412322059329E+01  2.475785281548E+01  2.541725168066E+01  2.610182862327E+01
  2.681191936090E+01  2.754777001947E+01  2.830952177543E+01  2.909719393845E+01
  2.970489131884E+01  3.032699471238E+01  3.096333880068E+01  3.161369688428E+01
  3.227777513266E+01  3.295520654249E+01  3.364554461621E+01  3.434825677836E+01
  3.506271755347E+01  3.578820153608E+01  3.652387619145E+01  3.726879453434E+01
  3.802188774279E+01  3.878195777451E+01  3.954767006510E+01  4.031754639941E+01
  4.108995806110E+01  4.186311937882E+01  4.263508180235E+01  4.340372865675E+01
  4.416677073778E+01  4.492174292668E+01  4.566600201691E+01  4.615483676279E+01
  4.663677935991E+01  4.711091474265E+01  4.757629346601E+01  4.803193238954E+01
  4.847681556699E+01  4.890989535561E+01  4.933009375948E+01  4.973630402031E+01
  5.012739246956E+01  5.050220065430E+01  5.085954774936E+01  5.119823326659E+01
  5.151704007143E+01  5.181473771544E+01  5.209008609160E+01  5.234183941771E+01
  5.256875055073E+01  5.276957563259E+01  5.294307906545E+01  5.308803881119E+01
  5.320325200679E+01  5.328754088376E+01  5.333975897589E+01  5.335879759573E+01
  5.334359255574E+01  5.329313110580E+01  5.320645905401E+01  5.308268803309E+01
  5.292100286968E+01  5.272066900920E+01  5.248103994386E+01  5.220156458700E+01
  5.188179453203E+01  5.152139113019E+01  5.112013231740E+01  5.067791911669E+01
  5.019478174017E+01  4.967088521149E+01  4.910653442891E+01  4.850217858748E+01
  4.785841487966E+01  4.717599139433E+01  4.645580913685E+01  4.569892309595E+01
  4.490654228830E+01  4.408002871732E+01  4.322089519067E+01  4.233080194926E+01
  4.141155207116E+01  4.046508562522E+01  3.949347256222E+01  3.849890434526E+01
  3.748368433675E+01  3.645021697520E+01  3.540099579216E+01  3.433859033724E+01
  3.380326383202E+01  3.326563209704E+01  3.272603128715E+01  3.218479951155E+01
  3.164227632485E+01  3.109880220933E+01  3.055471804940E+01  3.001036459973E+01
  2.946608194835E+01  2.892220897604E+01  2.837908281360E+01  2.783703829830E+01
  2.729640743119E+01  2.675751883673E+01  2.622069722634E+01  2.568626286738E+01
  2.515453105940E+01  2.462581161890E+01  2.410040837456E+01  2.357861867431E+01
  2.306073290588E+01  2.254703403245E+01  2.203779714480E+01  2.153328903150E+01
  2.103376776861E+01  2.053948233016E+01  2.005067222080E+01  1.956756713180E+01
  1.909038662160E+01  1.861933982189E+01  1.815462517026E+01  1.769643017031E+01
  1.724493117977E+01  1.680029322765E+01  1.636266986047E+01  1.593220301844E+01
  1.550902294146E+01  1.509324810540E+01  1.468498518845E+01  1.428432906757E+01
  1.389136284474E+01  1.350615790262E+01  1.312877398914E+01  1.275925933046E+01
  1.239765077143E+01  1.204397394283E+01  1.169824345433E+01  1.136046311223E+01
  1.103062616072E+01  1.070871554550E+01  1.039470419847E+01  1.008855534213E+01
  9.790222812273E+00  9.499651397510E+00  9.216777194258E+00  8.941527975582E+00
  8.673823572508E+00  8.413576266272E+00  8.160691190079E+00  7.915066738920E+00
  7.676594986078E+00  7.445162104946E+00  7.220648794899E+00  7.002930709948E+00
  6.791878889037E+00  6.587360186756E+00  6.389237703031E+00  6.197371211037E+00
  6.011617584607E+00  5.831831223754E+00  5.657864474284E+00  5.489568042362E+00
  5.326791403195E+00  5.169383203386E+00  5.017191729946E+00  4.870065661026E+00
  4.727854963938E+00  4.590411150645E+00  4.457587537750E+00  4.329239479314E+00
  4.205224585985E+00  4.085402927519E+00  3.969637218602E+00  3.857792987557E+00
  3.749738727585E+00  3.645346030240E+00  3.544489700910E+00  3.447047856127E+00
  3.352902002585E+00  3.261937097725E+00  3.174041591227E+00  3.089107447372E+00
  3.007030151421E+00  2.927708700909E+00  2.851045577959E+00  2.776946704832E+00
  2.705321382970E+00  2.636082216294E+00  2.569144951326E+00  2.504428034952E+00
  2.441852024105E+00  2.381339588511E+00  2.322815494862E+00  2.266206595433E+00
  2.211441814193E+00  2.158452130586E+00  2.107170561107E+00  2.057532138861E+00
  2.009473891213E+00  1.962934815681E+00  1.917855854209E+00  1.874179865933E+00
  1.831851598568E+00  1.790817658520E+00  1.751026479852E+00  1.712428292182E+00
  1.674975087635E+00  1.638620586925E+00  1.603320204676E+00  1.569031014054E+00
  1.535711710799E+00  1.503322576744E+00  1.471825442884E+00  1.441183652083E+00
  1.411362021490E+00  1.382326804718E+00  1.354045653884E+00  1.326487581539E+00
  1.299622922581E+00  1.273423296200E+00  1.247861567905E+00  1.222911811709E+00
  1.198549272513E+00  1.174750328736E+00  1.151492455257E+00  1.128754186702E+00
  1.106515081120E+00  1.084755684105E+00  1.063457493376E+00  1.042602923880E+00
  1.022175273428E+00  1.002158688910E+00  9.825381331039E-01  9.632993521209E-01
  9.444288434888E-01  9.259138249105E-01  9.077422037067E-01  8.899025469604E-01
  8.723840523759E-01  8.551765198628E-01  8.382703238542E-01  8.216563863652E-01
  8.053261507973E-01  7.892715564906E-01  7.734850140261E-01  7.579593812785E-01
  7.426879402155E-01  7.276643744443E-01  7.128827474973E-01  6.983374818551E-01
  6.840233386972E-01  6.699353983757E-01  6.560690416024E-01  6.424199313399E-01
  6.289839953875E-01  6.157574096514E-01  6.027365820872E-01  5.899181373037E-01
  5.772989018158E-01  5.648758899331E-01  5.526462902717E-01  5.406074528754E-01
  5.287568769333E-01  5.170921990785E-01  5.056111822549E-01  4.943117051366E-01
  4.831917520867E-01  4.722494036390E-01  4.614828274899E-01  4.508902699836E-01
  4.404700480771E-01  4.302205417702E-01  4.201401869846E-01  4.102274688785E-01
  4.004809155807E-01  3.908990923316E-01  3.814805960138E-01  3.722240500609E-01
  3.631280997278E-01  3.541914077137E-01  3.454126501045E-01  3.367905126589E-01
  3.283236873868E-01  3.200108694256E-01  3.118507541973E-01  3.038420348349E-01
  2.959833998636E-01  2.882735311262E-01  2.807111019400E-01  2.732947754736E-01
  2.660232033318E-01  2.588950243382E-01  2.519088635040E-01  2.450633311725E-01
  2.383570223297E-01  2.317885160703E-01  2.253563752093E-01  2.190591460308E-01
  2.128953581645E-01  2.068635245806E-01  2.009621416954E-01  1.951896895798E-01
  1.895446322613E-01  1.840254181143E-01  1.786304803296E-01  1.733582374566E-01
  1.682070940128E-01  1.631754411526E-01  1.582616573906E-01  1.534641093726E-01
  1.487811526905E-01  1.442111327334E-01  1.397523855728E-01  1.354032388749E-01
  1.311620128368E-01  1.270270211423E-01  1.229965719519E-01  1.190689688277E-01
  1.152425117833E-01  1.115154982603E-01  1.078862241264E-01  1.043529846728E-01
  1.009140756077E-01  9.756779404415E-02  9.431243947909E-02  9.114631476238E-02
  8.806772705297E-02  8.507498876084E-02  8.216641847292E-02  7.934034186149E-02
  7.659509257344E-02  7.392901309938E-02  7.134045562110E-02  6.882778283656E-02
  6.638936876120E-02  6.402359950488E-02  6.172887402356E-02  5.950360484492E-02
  5.734621876749E-02  5.525515753262E-02  5.322887846872E-02  5.126585510756E-02
  4.936457777212E-02  4.752355413578E-02  4.574130975258E-02  4.401638855841E-02
  4.234735334305E-02  4.073278619289E-02  3.917128890448E-02  3.766148336883E-02
  3.620201192660E-02  3.479153769435E-02  3.342874486200E-02  3.211233896176E-02
  3.084104710882E-02  2.961361821414E-02  2.842882316963E-02  2.728545500628E-02
  2.618232902555E-02  2.511828290463E-02  2.409217677600E-02  2.310289328197E-02
  2.214933760472E-02  2.123043747247E-02  2.034514314253E-02  1.949242736187E-02
  1.867128530592E-02  1.788073449638E-02  1.711981469876E-02  1.638758780057E-02
  1.568313767072E-02  1.500557000124E-02  1.435401213192E-02  1.372761285882E-02
  1.312554222745E-02  1.254699131158E-02  1.199117197831E-02  1.145731664048E-02
  1.094467799717E-02  1.045252876306E-02  9.980161387659E-03  9.526887765047E-03
  9.092038935053E-03  8.674964776636E-03  8.275033694245E-03  7.891632297935E-03
  7.524165077980E-03  7.172054074705E-03  6.834738544265E-03  6.511674621024E-03
  6.202334977220E-03  5.906208480538E-03  5.622799850210E-03  5.351629312225E-03
  5.092232254204E-03  4.844158880491E-03  4.606973867946E-03  4.380256022941E-03
  4.163597939993E-03  3.956605662486E-03  3.758898345860E-03  3.570107923655E-03
  3.389878776761E-03  3.217867406189E-03  3.053742109660E-03  2.897182662307E-03
  2.747880001705E-03  2.605535917487E-03  2.469862745731E-03  2.340583068305E-03
  2.217429417335E-03  2.100143984916E-03  1.988478338220E-03  1.882193140061E-03
  1.781057875034E-03  1.684850581277E-03  1.593357587900E-03  1.506373258134E-03
  1.423699738201E-03  1.345146711925E-03  1.270531161061E-03  1.199677131349E-03
  1.132415504234E-03  1.068583774240E-03  1.008025831933E-03  9.505917524268E-04
  8.961375893605E-04  8.445251742877E-04  7.956219213932E-04  7.493006374627E-04
  7.054393370183E-04  6.639210625324E-04  6.246337096292E-04  5.874698571794E-04
  5.523266021942E-04  5.191053994195E-04  4.877119055359E-04  4.580558278630E-04
  4.300507774731E-04  4.036141266139E-04  3.786668703444E-04  3.551334922865E-04
  3.329418343983E-04  3.120229706730E-04  2.923110846722E-04  2.737433508018E-04
  2.562598192403E-04  2.398033044330E-04  2.243192770642E-04  2.097557594249E-04
  1.960632240921E-04  1.831944958395E-04  1.711046567012E-04  1.597509541098E-04
  1.490927120360E-04  1.390912450527E-04  1.297097752550E-04  1.209133519625E-04
  1.126687741370E-04  1.049445154472E-04  9.771065191420E-05  9.093879207298E-05
  8.460200958661E-05  7.867477825031E-05  7.313290932439E-05  6.795349113570E-05
  6.311483088871E-05  5.859639862774E-05  5.437877329338E-05  5.044359081666E-05
  4.677349419565E-05  4.335208549973E-05  4.016387974804E-05  3.719426060884E-05
  3.442943786788E-05  3.185640661423E-05  2.946290809287E-05  2.723739217437E-05
  2.516898139229E-05  2.324743650008E-05  2.146312349976E-05  1.980698209562E-05
  1.827049552664E-05  1.684566173258E-05  1.552496580894E-05  1.430135370712E-05
  1.316820713690E-05  1.211931962892E-05  1.114887371599E-05  1.025141919264E-05
  9.421852413256E-06  8.655396589994E-06  7.947583052583E-06  7.294233432835E-06
  6.691442737720E-06  6.135563275658E-06  5.623189401590E-06  5.151143047279E-06
  4.716460004179E-06  4.316376927118E-06  3.948319027925E-06  3.609888429032E-06
  3.298853147971E-06  3.013136684578E-06  2.750808183599E-06  2.510073146274E-06
  2.289264665336E-06  2.086835158739E-06  1.901348578275E-06  1.731473070082E-06
  1.575974064871E-06  1.433707776537E-06  1.303615088603E-06  1.184715808740E-06
  1.076103272407E-06  9.769392773696E-07  8.864493316470E-07  8.039181981257E-07
  7.286857198155E-07  6.601429103970E-07  5.977282953908E-07  5.409244899350E-07
  4.892549997877E-07  4.422812327958E-07  3.995997086646E-07  3.608394554443E-07
  3.256595817112E-07  2.937470139600E-07  2.648143892486E-07  2.385980936394E-07