Te    ONCVPSP-4.0.1  r_core=   1.30011   1.30011   1.50083   1.80662
52.0000     24.0000      220131    zatom,zion,pspd
8      11   3     4   600     0    pspcod,pspxc,lmax,lloc,mmax,r2well
5.99000000  5.00000000  0.00000000    rchrg fchrg qchrg
2     2     2     2     0    nproj
1     1           extension_switch
0                         9.1581003070451E+00 -3.5039148802788E-01
1  0.0000000000000E+00  2.1940573802226E-09  3.9830369030769E-08
2  1.0000000000000E-02  8.8963264747821E-02  2.6862072070941E-02
3  2.0000000000000E-02  1.7770452956581E-01  5.3999230847360E-02
4  3.0000000000000E-02  2.6600174246603E-01  8.1673095299760E-02
5  4.0000000000000E-02  3.5363276786895E-01  1.1011874514308E-01
6  5.0000000000000E-02  4.4037539553388E-01  1.3953243110834E-01
7  6.0000000000000E-02  5.2600740873763E-01  1.7006043158707E-01
8  7.0000000000000E-02  6.1030672878925E-01  2.0178938941568E-01
9  8.0000000000000E-02  6.9305165077451E-01  2.3473842273626E-01
10  9.0000000000000E-02  7.7402118278823E-01  2.6885325605809E-01
11  1.0000000000000E-01  8.5299549790093E-01  3.0400256309107E-01
12  1.1000000000000E-01  9.2975650479751E-01  3.3997665305053E-01
13  1.2000000000000E-01  1.0040885395025E+00  3.7648856850143E-01
14  1.3000000000000E-01  1.0757791769602E+00  4.1317759708236E-01
15  1.4000000000000E-01  1.1446201575607E+00  4.4961513334598E-01
16  1.5000000000000E-01  1.2104084200915E+00  4.8531276221057E-01
17  1.6000000000000E-01  1.2729472291396E+00  5.1973237384134E-01
18  1.7000000000000E-01  1.3320473817613E+00  5.5229806280753E-01
19  1.8000000000000E-01  1.3875284753624E+00  5.8240951360568E-01
20  1.9000000000000E-01  1.4392202162617E+00  6.0945653146962E-01
21  2.0000000000000E-01  1.4869637464148E+00  6.3283434297149E-01
22  2.1000000000000E-01  1.5306129643068E+00  6.5195926621295E-01
23  2.2000000000000E-01  1.5700358151214E+00  6.6628433611265E-01
24  2.3000000000000E-01  1.6051155249900E+00  6.7531446685667E-01
25  2.4000000000000E-01  1.6357517544281E+00  6.7862074115444E-01
26  2.5000000000000E-01  1.6618616469738E+00  6.7585343440725E-01
27  2.6000000000000E-01  1.6833807505439E+00  6.6675341084735E-01
28  2.7000000000000E-01  1.7002637910716E+00  6.5116156745874E-01
29  2.8000000000000E-01  1.7124852805538E+00  6.2902604911041E-01
30  2.9000000000000E-01  1.7200399446445E+00  6.0040701364235E-01
31  3.0000000000000E-01  1.7229429583226E+00  5.6547878726173E-01
32  3.1000000000000E-01  1.7212299818460E+00  5.2452931697824E-01
33  3.2000000000000E-01  1.7149569931038E+00  4.7795689623811E-01
34  3.3000000000000E-01  1.7041999164876E+00  4.2626421062811E-01
35  3.4000000000000E-01  1.6890540524356E+00  3.7004982067872E-01
36  3.5000000000000E-01  1.6696333157544E+00  3.0999726656984E-01
37  3.6000000000000E-01  1.6460692945957E+00  2.4686204314810E-01
38  3.7000000000000E-01  1.6185101454755E+00  1.8145675140406E-01
39  3.8000000000000E-01  1.5871193428726E+00  1.1463478288033E-01
40  3.9000000000000E-01  1.5520743046663E+00  4.7272934998814E-02
41  4.0000000000000E-01  1.5135649168933E+00 -1.9746613148719E-02
42  4.1000000000000E-01  1.4717919829740E+00 -8.5554514335422E-02
43  4.2000000000000E-01  1.4269656236323E+00 -1.4931219670977E-01
44  4.3000000000000E-01  1.3793036541879E+00 -2.1022908068203E-01
45  4.4000000000000E-01  1.3290299657256E+00 -2.6757862727460E-01
46  4.5000000000000E-01  1.2763729358422E+00 -3.2071280239567E-01
47  4.6000000000000E-01  1.2215638932699E+00 -3.6907457898687E-01
48  4.7000000000000E-01  1.1648356586996E+00 -4.1220814675702E-01
49  4.8000000000000E-01  1.1064211816413E+00 -4.4976655611471E-01
50  4.9000000000000E-01  1.0465522902155E+00 -4.8151658757631E-01
51  5.0000000000000E-01  9.8545856745568E-01 -5.0734070876065E-01
52  5.1000000000000E-01  9.2336636409325E-01 -5.2723605631758E-01
53  5.2000000000000E-01  8.6049795399472E-01 -5.4131045786866E-01
54  5.3000000000000E-01  7.9707083452191E-01 -5.4977558727612E-01
55  5.4000000000000E-01  7.3329717018979E-01 -5.5293742327009E-01
56  5.5000000000000E-01  6.6938337420977E-01 -5.5118425464319E-01
57  5.6000000000000E-01  6.0552981892437E-01 -5.4497254291661E-01
58  5.7000000000000E-01  5.4193066286015E-01 -5.3481101376522E-01
59  5.8000000000000E-01  4.7877377923460E-01 -5.2124339989497E-01
60  5.9000000000000E-01  4.1624076832886E-01 -5.0483029903974E-01
61  6.0000000000000E-01  3.5450703424637E-01 -4.8613064008248E-01
62  6.1000000000000E-01  2.9374190527021E-01 -4.6568326708611E-01
63  6.2000000000000E-01  2.3410877634633E-01 -4.4398915463324E-01
64  6.3000000000000E-01  1.7576525217694E-01 -4.2149475803989E-01
65  6.4000000000000E-01  1.1886327001149E-01 -3.9857697879231E-01
66  6.5000000000000E-01  6.3549182459836E-02 -3.7553018936190E-01
67  6.6000000000000E-01  9.9637824922987E-03 -3.5255571313036E-01
68  6.7000000000000E-01 -4.1757744811289E-02 -3.2975409557448E-01
69  6.8000000000000E-01 -9.1485956308845E-02 -3.0712043349124E-01
70  6.9000000000000E-01 -1.3909737987227E-01 -2.8454295152984E-01
71  7.0000000000000E-01 -1.8447484408055E-01 -2.6180493151696E-01
72  7.1000000000000E-01 -2.2750791023755E-01 -2.3859001207105E-01
73  7.2000000000000E-01 -2.6809340441257E-01 -2.1449078601153E-01
74  7.3000000000000E-01 -3.0613604317088E-01 -1.8902053334983E-01
75  7.4000000000000E-01 -3.4154914272216E-01 -1.6162784052890E-01
76  7.5000000000000E-01 -3.7425539747715E-01 -1.3171377432007E-01
77  7.6000000000000E-01 -4.0418771057380E-01 -9.8651203590013E-02
78  7.7000000000000E-01 -4.3129005591470E-01 -6.1805796058214E-02
79  7.8000000000000E-01 -4.5551834873813E-01 -2.0558162016299E-02
80  7.9000000000000E-01 -4.7684129980495E-01  2.5673425631559E-02
81  8.0000000000000E-01 -4.9524122698860E-01  7.7410334419901E-02
82  8.1000000000000E-01 -5.1071479745453E-01  1.3509151184582E-01
83  8.2000000000000E-01 -5.2327367374047E-01  1.9905267329857E-01
84  8.3000000000000E-01 -5.3294503791434E-01  2.6950733323451E-01
85  8.4000000000000E-01 -5.3977196958575E-01  3.4653024186241E-01
86  8.5000000000000E-01 -5.4381365585633E-01  4.3004374209630E-01
87  8.6000000000000E-01 -5.4514541426908E-01  5.1980750003676E-01
88  8.7000000000000E-01 -5.4385851339702E-01  6.1541198805269E-01
89  8.8000000000000E-01 -5.4005977981734E-01  7.1627601429861E-01
90  8.9000000000000E-01 -5.3387098475709E-01  8.2164849815797E-01
91  9.0000000000000E-01 -5.2542800856342E-01  9.3061458984757E-01
92  9.1000000000000E-01 -5.1487978622944E-01  1.0421061266562E+00
93  9.2000000000000E-01 -5.0238704237309E-01  1.1549163105715E+00
94  9.3000000000000E-01 -4.8812082919189E-01  1.2677183850115E+00
95  9.4000000000000E-01 -4.7226088587248E-01  1.3790879846730E+00
96  9.5000000000000E-01 -4.5499384259311E-01  1.4875287347585E+00
97  9.6000000000000E-01 -4.3651129649674E-01  1.5915005865557E+00
98  9.7000000000000E-01 -4.1700779072055E-01  1.6894502978137E+00
99  9.8000000000000E-01 -3.9667873063919E-01  1.7798434007395E+00
100  9.9000000000000E-01 -3.7571827382805E-01  1.8611969494862E+00
101  1.0000000000000E+00 -3.5431723180606E-01  1.9321123042224E+00
102  1.0100000000000E+00 -3.3266102232263E-01  1.9913071913243E+00
103  1.0200000000000E+00 -3.1092771077515E-01  2.0376462796563E+00
104  1.0300000000000E+00 -2.8928617827236E-01  2.0701695314918E+00
105  1.0400000000000E+00 -2.6789445190246E-01  2.0881176232338E+00
106  1.0500000000000E+00 -2.4689822995223E-01  2.0909537851448E+00
107  1.0600000000000E+00 -2.2642963121604E-01  2.0783814795432E+00
108  1.0700000000000E+00 -2.0660619318862E-01  2.0503574222140E+00
109  1.0800000000000E+00 -1.8753013895939E-01  2.0070995499865E+00
110  1.0900000000000E+00 -1.6928792712220E-01  1.9490896464292E+00
111  1.1000000000000E+00 -1.5195009308852E-01  1.8770704553010E+00
112  1.1100000000000E+00 -1.3557138401897E-01  1.7920372342230E+00
113  1.1200000000000E+00 -1.2019118324361E-01  1.6952238274805E+00
114  1.1300000000000E+00 -1.0583421375439E-01  1.5880834622980E+00
115  1.1400000000000E+00 -9.2511504179882E-02  1.4722645962240E+00
116  1.1500000000000E+00 -8.0221594830515E-02  1.3495822596033E+00
117  1.1600000000000E+00 -6.8951955979809E-02  1.2219854455593E+00
118  1.1700000000000E+00 -5.8680585743508E-02  1.0915211959909E+00
119  1.1800000000000E+00 -4.9377750763212E-02  9.6029611523166E-01
120  1.1900000000000E+00 -4.1007829578124E-02  8.3043610950826E-01
121  1.2000000000000E+00 -3.3531216092193E-02  7.0404519986426E-01
122  1.2100000000000E+00 -2.6906239028854E-02  5.8316428648561E-01
123  1.2200000000000E+00 -2.1091061478592E-02  4.6973063494585E-01
124  1.2300000000000E+00 -1.6045443529397E-02  3.6553991535665E-01
125  1.2400000000000E+00 -1.1734218345892E-02  2.7218471514895E-01
126  1.2500000000000E+00 -8.1326730766548E-03  1.9095776183758E-01
127  1.2600000000000E+00 -5.2101437330067E-03  1.2308438579455E-01
128  1.2700000000000E+00 -2.9435010125128E-03  6.9536646982395E-02
129  1.2800000000000E+00 -1.3201105165133E-03  3.0996228231413E-02
130  1.2900000000000E+00 -3.3347246578337E-04  7.7372835858046E-03
131  1.3000000000000E+00 -7.8567199384683E-07  1.8140891679924E-05
132  1.3100000000000E+00 -2.4852779199511E-06  5.6992386787030E-05
133  1.3200000000000E+00  5.1210346895584E-07 -1.1829343964672E-05
134  1.33 -0. -0.
135  1.34  0.  0.
136  1.35  0.  0.
137  1.36  0.  0.
138  1.37  0.  0.
139  1.38  0.  0.
140  1.39  0.  0.
141  1.40  0.  0.
142  1.41  0.  0.
143  1.42  0.  0.
144  1.43  0.  0.
145  1.44  0.  0.
146  1.45  0.  0.
147  1.46  0.  0.
148  1.47  0.  0.
149  1.48  0.  0.
150  1.49  0.  0.
151  1.50  0.  0.
152  1.51  0.  0.
153  1.52  0.  0.
154  1.53  0.  0.
155  1.54  0.  0.
156  1.55  0.  0.
157  1.56  0.  0.
158  1.57  0.  0.
159  1.58  0.  0.
160  1.59  0.  0.
161  1.60  0.  0.
162  1.61  0.  0.
163  1.62  0.  0.
164  1.63  0.  0.
165  1.64  0.  0.
166  1.65  0.  0.
167  1.66  0.  0.
168  1.67  0.  0.
169  1.68  0.  0.
170  1.69  0.  0.
171  1.70  0.  0.
172  1.71  0.  0.
173  1.72  0.  0.
174  1.73  0.  0.
175  1.74  0.  0.
176  1.75  0.  0.
177  1.76  0.  0.
178  1.77  0.  0.
179  1.78  0.  0.
180  1.79  0.  0.
181  1.80  0.  0.
182  1.81  0.  0.
183  1.82  0.  0.
184  1.83  0.  0.
185  1.84  0.  0.
186  1.85  0.  0.
187  1.86  0.  0.
188  1.87  0.  0.
189  1.88  0.  0.
190  1.89  0.  0.
191  1.90  0.  0.
192  1.91  0.  0.
193  1.92  0.  0.
194  1.93  0.  0.
195  1.94  0.  0.
196  1.95  0.  0.
197  1.96  0.  0.
198  1.97  0.  0.
199  1.98  0.  0.
200  1.99  0.  0.
201  2.00  0.  0.
202  2.01  0.  0.
203  2.02  0.  0.
204  2.03  0.  0.
205  2.04  0.  0.
206  2.05  0.  0.
207  2.06  0.  0.
208  2.07  0.  0.
209  2.08  0.  0.
210  2.09  0.  0.
211  2.10  0.  0.
212  2.11  0.  0.
213  2.12  0.  0.
214  2.13  0.  0.
215  2.14  0.  0.
216  2.15  0.  0.
217  2.16  0.  0.
218  2.17  0.  0.
219  2.18  0.  0.
220  2.19  0.  0.
221  2.20  0.  0.
222  2.21  0.  0.
223  2.22  0.  0.
224  2.23  0.  0.
225  2.24  0.  0.
226  2.25  0.  0.
227  2.26  0.  0.
228  2.27  0.  0.
229  2.28  0.  0.
230  2.29  0.  0.
231  2.30  0.  0.
232  2.31  0.  0.
233  2.32  0.  0.
234  2.33  0.  0.
235  2.34  0.  0.
236  2.35  0.  0.
237  2.36  0.  0.
238  2.37  0.  0.
239  2.38  0.  0.
240  2.39  0.  0.
241  2.40  0.  0.
242  2.41  0.  0.
243  2.42  0.  0.
244  2.43  0.  0.
245  2.44  0.  0.
246  2.45  0.  0.
247  2.46  0.  0.
248  2.47  0.  0.
249  2.48  0.  0.
250  2.49  0.  0.
251  2.50  0.  0.
252  2.51  0.  0.
253  2.52  0.  0.
254  2.53  0.  0.
255  2.54  0.  0.
256  2.55  0.  0.
257  2.56  0.  0.
258  2.57  0.  0.
259  2.58  0.  0.
260  2.59  0.  0.
261  2.60  0.  0.
262  2.61  0.  0.
263  2.62  0.  0.
264  2.63  0.  0.
265  2.64  0.  0.
266  2.65  0.  0.
267  2.66  0.  0.
268  2.67  0.  0.
269  2.68  0.  0.
270  2.69  0.  0.
271  2.70  0.  0.
272  2.71  0.  0.
273  2.72  0.  0.
274  2.73  0.  0.
275  2.74  0.  0.
276  2.75  0.  0.
277  2.76  0.  0.
278  2.77  0.  0.
279  2.78  0.  0.
280  2.79  0.  0.
281  2.80  0.  0.
282  2.81  0.  0.
283  2.82  0.  0.
284  2.83  0.  0.
285  2.84  0.  0.
286  2.85  0.  0.
287  2.86  0.  0.
288  2.87  0.  0.
289  2.88  0.  0.
290  2.89  0.  0.
291  2.90  0.  0.
292  2.91  0.  0.
293  2.92  0.  0.
294  2.93  0.  0.
295  2.94  0.  0.
296  2.95  0.  0.
297  2.96  0.  0.
298  2.97  0.  0.
299  2.98  0.  0.
300  2.99  0.  0.
301  3.00  0.  0.
302  3.01  0.  0.
303  3.02  0.  0.
304  3.03  0.  0.
305  3.04  0.  0.
306  3.05  0.  0.
307  3.06  0.  0.
308  3.07  0.  0.
309  3.08  0.  0.
310  3.09  0.  0.
311  3.10  0.  0.
312  3.11  0.  0.
313  3.12  0.  0.
314  3.13  0.  0.
315  3.14  0.  0.
316  3.15  0.  0.
317  3.16  0.  0.
318  3.17  0.  0.
319  3.18  0.  0.
320  3.19  0.  0.
321  3.20  0.  0.
322  3.21  0.  0.
323  3.22  0.  0.
324  3.23  0.  0.
325  3.24  0.  0.
326  3.25  0.  0.
327  3.26  0.  0.
328  3.27  0.  0.
329  3.28  0.  0.
330  3.29  0.  0.
331  3.30  0.  0.
332  3.31  0.  0.
333  3.32  0.  0.
334  3.33  0.  0.
335  3.34  0.  0.
336  3.35  0.  0.
337  3.36  0.  0.
338  3.37  0.  0.
339  3.38  0.  0.
340  3.39  0.  0.
341  3.40  0.  0.
342  3.41  0.  0.
343  3.42  0.  0.
344  3.43  0.  0.
345  3.44  0.  0.
346  3.45  0.  0.
347  3.46  0.  0.
348  3.47  0.  0.
349  3.48  0.  0.
350  3.49  0.  0.
351  3.50  0.  0.
352  3.51  0.  0.
353  3.52  0.  0.
354  3.53  0.  0.
355  3.54  0.  0.
356  3.55  0.  0.
357  3.56  0.  0.
358  3.57  0.  0.
359  3.58  0.  0.
360  3.59  0.  0.
361  3.60  0.  0.
362  3.61  0.  0.
363  3.62  0.  0.
364  3.63  0.  0.
365  3.64  0.  0.
366  3.65  0.  0.
367  3.66  0.  0.
368  3.67  0.  0.
369  3.68  0.  0.
370  3.69  0.  0.
371  3.70  0.  0.
372  3.71  0.  0.
373  3.72  0.  0.
374  3.73  0.  0.
375  3.74  0.  0.
376  3.75  0.  0.
377  3.76  0.  0.
378  3.77  0.  0.
379  3.78  0.  0.
380  3.79  0.  0.
381  3.80  0.  0.
382  3.81  0.  0.
383  3.82  0.  0.
384  3.83  0.  0.
385  3.84  0.  0.
386  3.85  0.  0.
387  3.86  0.  0.
388  3.87  0.  0.
389  3.88  0.  0.
390  3.89  0.  0.
391  3.90  0.  0.
392  3.91  0.  0.
393  3.92  0.  0.
394  3.93  0.  0.
395  3.94  0.  0.
396  3.95  0.  0.
397  3.96  0.  0.
398  3.97  0.  0.
399  3.98  0.  0.
400  3.99  0.  0.
401  4.00  0.  0.
402  4.01  0.  0.
403  4.02  0.  0.
404  4.03  0.  0.
405  4.04  0.  0.
406  4.05  0.  0.
407  4.06  0.  0.
408  4.07  0.  0.
409  4.08  0.  0.
410  4.09  0.  0.
411  4.10  0.  0.
412  4.11  0.  0.
413  4.12  0.  0.
414  4.13  0.  0.
415  4.14  0.  0.
416  4.15  0.  0.
417  4.16  0.  0.
418  4.17  0.  0.
419  4.18  0.  0.
420  4.19  0.  0.
421  4.20  0.  0.
422  4.21  0.  0.
423  4.22  0.  0.
424  4.23  0.  0.
425  4.24  0.  0.
426  4.25  0.  0.
427  4.26  0.  0.
428  4.27  0.  0.
429  4.28  0.  0.
430  4.29  0.  0.
431  4.30  0.  0.
432  4.31  0.  0.
433  4.32  0.  0.
434  4.33  0.  0.
435  4.34  0.  0.
436  4.35  0.  0.
437  4.36  0.  0.
438  4.37  0.  0.
439  4.38  0.  0.
440  4.39  0.  0.
441  4.40  0.  0.
442  4.41  0.  0.
443  4.42  0.  0.
444  4.43  0.  0.
445  4.44  0.  0.
446  4.45  0.  0.
447  4.46  0.  0.
448  4.47  0.  0.
449  4.48  0.  0.
450  4.49  0.  0.
451  4.50  0.  0.
452  4.51  0.  0.
453  4.52  0.  0.
454  4.53  0.  0.
455  4.54  0.  0.
456  4.55  0.  0.
457  4.56  0.  0.
458  4.57  0.  0.
459  4.58  0.  0.
460  4.59  0.  0.
461  4.60  0.  0.
462  4.61  0.  0.
463  4.62  0.  0.
464  4.63  0.  0.
465  4.64  0.  0.
466  4.65  0.  0.
467  4.66  0.  0.
468  4.67  0.  0.
469  4.68  0.  0.
470  4.69  0.  0.
471  4.70  0.  0.
472  4.71  0.  0.
473  4.72  0.  0.
474  4.73  0.  0.
475  4.74  0.  0.
476  4.75  0.  0.
477  4.76  0.  0.
478  4.77  0.  0.
479  4.78  0.  0.
480  4.79  0.  0.
481  4.80  0.  0.
482  4.81  0.  0.
483  4.82  0.  0.
484  4.83  0.  0.
485  4.84  0.  0.
486  4.85  0.  0.
487  4.86  0.  0.
488  4.87  0.  0.
489  4.88  0.  0.
490  4.89  0.  0.
491  4.90  0.  0.
492  4.91  0.  0.
493  4.92  0.  0.
494  4.93  0.  0.
495  4.94  0.  0.
496  4.95  0.  0.
497  4.96  0.  0.
498  4.97  0.  0.
499  4.98  0.  0.
500  4.99  0.  0.
501  5.00  0.  0.
502  5.01  0.  0.
503  5.02  0.  0.
504  5.03  0.  0.
505  5.04  0.  0.
506  5.05  0.  0.
507  5.06  0.  0.
508  5.07  0.  0.
509  5.08  0.  0.
510  5.09  0.  0.
511  5.10  0.  0.
512  5.11  0.  0.
513  5.12  0.  0.
514  5.13  0.  0.
515  5.14  0.  0.
516  5.15  0.  0.
517  5.16  0.  0.
518  5.17  0.  0.
519  5.18  0.  0.
520  5.19  0.  0.
521  5.20  0.  0.
522  5.21  0.  0.
523  5.22  0.  0.
524  5.23  0.  0.
525  5.24  0.  0.
526  5.25  0.  0.
527  5.26  0.  0.
528  5.27  0.  0.
529  5.28  0.  0.
530  5.29  0.  0.
531  5.30  0.  0.
532  5.31  0.  0.
533  5.32  0.  0.
534  5.33  0.  0.
535  5.34  0.  0.
536  5.35  0.  0.
537  5.36  0.  0.
538  5.37  0.  0.
539  5.38  0.  0.
540  5.39  0.  0.
541  5.40  0.  0.
542  5.41  0.  0.
543  5.42  0.  0.
544  5.43  0.  0.
545  5.44  0.  0.
546  5.45  0.  0.
547  5.46  0.  0.
548  5.47  0.  0.
549  5.48  0.  0.
550  5.49  0.  0.
551  5.50  0.  0.
552  5.51  0.  0.
553  5.52  0.  0.
554  5.53  0.  0.
555  5.54  0.  0.
556  5.55  0.  0.
557  5.56  0.  0.
558  5.57  0.  0.
559  5.58  0.  0.
560  5.59  0.  0.
561  5.60  0.  0.
562  5.61  0.  0.
563  5.62  0.  0.
564  5.63  0.  0.
565  5.64  0.  0.
566  5.65  0.  0.
567  5.66  0.  0.
568  5.67  0.  0.
569  5.68  0.  0.
570  5.69  0.  0.
571  5.70  0.  0.
572  5.71  0.  0.
573  5.72  0.  0.
574  5.73  0.  0.
575  5.74  0.  0.
576  5.75  0.  0.
577  5.76  0.  0.
578  5.77  0.  0.
579  5.78  0.  0.
580  5.79  0.  0.
581  5.80  0.  0.
582  5.81  0.  0.
583  5.82  0.  0.
584  5.83  0.  0.
585  5.84  0.  0.
586  5.85  0.  0.
587  5.86  0.  0.
588  5.87  0.  0.
589  5.88  0.  0.
590  5.89  0.  0.
591  5.90  0.  0.
592  5.91  0.  0.
593  5.92  0.  0.
594  5.93  0.  0.
595  5.94  0.  0.
596  5.95  0.  0.
597  5.96  0.  0.
598  5.97  0.  0.
599  5.98  0.  0.
600  5.99  0.  0.
1                         3.2549276271598E+00 -6.6664557297162E-01
1  0.0000000000000E+00 -2.8976660182423E-08 -1.4344510865369E-08
2  1.0000000000000E-02  2.2063011415993E-03 -3.0813672792182E-05
3  2.0000000000000E-02  8.8268701836531E-03 -1.1269740145251E-04
4  3.0000000000000E-02  1.9866183382170E-02 -2.1428598914178E-04
5  4.0000000000000E-02  3.5329984956256E-02 -2.8431693860562E-04
6  5.0000000000000E-02  5.5222779067421E-02 -2.5311705331648E-04
7  6.0000000000000E-02  7.9544449029327E-02 -3.4619426382776E-05
8  7.0000000000000E-02  1.0828612925292E-01  4.7115104655924E-04
9  8.0000000000000E-02  1.4142548440852E-01  1.3751998387669E-03
10  9.0000000000000E-02  1.7892157438729E-01  2.7963808417876E-03
11  1.0000000000000E-01  2.2070950209354E-01  4.8580077398763E-03
12  1.1000000000000E-01  2.6669505329018E-01  7.6843623862220E-03
13  1.2000000000000E-01  3.1674954323475E-01  1.1397206865309E-02
14  1.3000000000000E-01  3.7070508346757E-01  1.6112405610981E-02
15  1.4000000000000E-01  4.2835047383896E-01  2.1936760313263E-02
16  1.5000000000000E-01  4.8942790989315E-01  2.8965153492696E-02
17  1.6000000000000E-01  5.5363067446930E-01  3.7278086750463E-02
18  1.7000000000000E-01  6.2060195543567E-01  4.6939687112314E-02
19  1.8000000000000E-01  6.8993489961957E-01  5.7996239954845E-02
20  1.9000000000000E-01  7.6117397716208E-01  7.0475290187814E-02
21  2.0000000000000E-01  8.3381769177326E-01  8.4385335181780E-02
22  2.1000000000000E-01  9.0732263184128E-01  9.9716113934773E-02
23  2.2000000000000E-01  9.8110881627636E-01  1.1643947775412E-01
24  2.3000000000000E-01  1.0545662485880E+00  1.3451080888756E-01
25  2.4000000000000E-01  1.1270625542344E+00  1.5387093566342E-01
26  2.5000000000000E-01  1.1979515409294E+00  1.7444847635744E-01
27  2.6000000000000E-01  1.2665824904499E+00  1.9616252971787E-01
28  2.7000000000000E-01  1.3323099645339E+00  2.1892561831341E-01
29  2.8000000000000E-01  1.3945038875440E+00  2.4264678201113E-01
30  2.9000000000000E-01  1.4525596553546E+00  2.6723471324836E-01
31  3.0000000000000E-01  1.5059080138729E+00  2.9260082354089E-01
32  3.1000000000000E-01  1.5540244520024E+00  3.1866213197599E-01
33  3.2000000000000E-01  1.5964378627292E+00  3.4534387126942E-01
34  3.3000000000000E-01  1.6327382421936E+00  3.7258171521117E-01
35  3.4000000000000E-01  1.6625832197069E+00  4.0032354276787E-01
36  3.5000000000000E-01  1.6857032410691E+00  4.2853066843365E-01
37  3.6000000000000E-01  1.7019052624612E+00  4.5717848521649E-01
38  3.7000000000000E-01  1.7110748516365E+00  4.8625648542350E-01
39  3.8000000000000E-01  1.7131766360302E+00  5.1576764460849E-01
40  3.9000000000000E-01  1.7082530824968E+00  5.4572717506207E-01
41  4.0000000000000E-01  1.6964216393905E+00  5.7616067641506E-01
42  4.1000000000000E-01  1.6778703172709E+00  6.0710173163678E-01
43  4.2000000000000E-01  1.6528518283018E+00  6.3858901628907E-01
44  4.3000000000000E-01  1.6216764451195E+00  6.7066300671994E-01
45  4.4000000000000E-01  1.5847037763440E+00  7.0336238836652E-01
46  4.5000000000000E-01  1.5423336868823E+00  7.3672027796493E-01
47  4.6000000000000E-01  1.4949966157661E+00  7.7076038279602E-01
48  4.7000000000000E-01  1.4431435616861E+00  8.0549322578021E-01
49  4.8000000000000E-01  1.3872360160567E+00  8.4091256703070E-01
50  4.9000000000000E-01  1.3277361249938E+00  8.7699215025029E-01
51  5.0000000000000E-01  1.2650973549082E+00  9.1368289610266E-01
52  5.1000000000000E-01  1.1997559216045E+00  9.5091065451390E-01
53  5.2000000000000E-01  1.1321232202002E+00  9.8857461399323E-01
54  5.3000000000000E-01  1.0625794634245E+00  1.0265464488478E+00
55  5.4000000000000E-01  9.9146869972999E-01  1.0646702650557E+00
56  5.5000000000000E-01  9.1909534115567E-01  1.1027633830960E+00
57  5.6000000000000E-01  8.4572228518746E-01  1.1406179718450E+00
58  5.7000000000000E-01  7.7157066628733E-01  1.1780035224128E+00
59  5.8000000000000E-01  6.9682122270587E-01  1.2146701252512E+00
60  5.9000000000000E-01  6.2161721413035E-01  1.2503524887650E+00
61  6.0000000000000E-01  5.4606877713419E-01  1.2847746137517E+00
62  6.1000000000000E-01  4.7025855974477E-01  1.3176550160201E+00
63  6.2000000000000E-01  3.9424843512489E-01  1.3487123701804E+00
64  6.3000000000000E-01  3.1808705864894E-01  1.3776714314790E+00
65  6.4000000000000E-01  2.4181800367773E-01  1.4042690802249E+00
66  6.5000000000000E-01  1.6548819004182E-01  1.4282603252390E+00
67  6.6000000000000E-01  8.9156306361801E-02  1.4494240992044E+00
68  6.7000000000000E-01  1.2900923360289E-02  1.4675686799818E+00
69  6.8000000000000E-01 -6.3171999511748E-02  1.4825365779566E+00
70  6.9000000000000E-01 -1.3892249752816E-01  1.4942087402248E+00
71  7.0000000000000E-01 -2.1417113451544E-01  1.5025079376869E+00
72  7.1000000000000E-01 -2.8869491599282E-01  1.5074012205634E+00
73  7.2000000000000E-01 -3.6222477176033E-01  1.5089013509901E+00
74  7.3000000000000E-01 -4.3444475285772E-01  1.5070671476090E+00
75  7.4000000000000E-01 -5.0499303744124E-01  1.5020027057539E+00
76  7.5000000000000E-01 -5.7346478598937E-01  1.4938554871637E+00
77  7.6000000000000E-01 -6.3941682989457E-01  1.4828133043127E+00
78  7.7000000000000E-01 -7.0237412055064E-01  1.4691002555517E+00
79  7.8000000000000E-01 -7.6183781016987E-01  1.4529716974262E+00
80  7.9000000000000E-01 -8.1729478241272E-01  1.4347083689072E+00
81  8.0000000000000E-01 -8.6822840209457E-01  1.4146098079956E+00
82  8.1000000000000E-01 -9.1413021023983E-01  1.3929872234781E+00
83  8.2000000000000E-01 -9.5451225493592E-01  1.3701560028227E+00
84  8.3000000000000E-01 -9.8891972095939E-01  1.3464280507260E+00
85  8.4000000000000E-01 -1.0169435029383E+00  1.3221041611994E+00
86  8.5000000000000E-01 -1.0382323585607E+00  1.2974666289890E+00
87  8.6000000000000E-01 -1.0525042804423E+00  1.2727723033797E+00
88  8.7000000000000E-01 -1.0595567378360E+00  1.2482462790366E+00
89  8.8000000000000E-01 -1.0592754622124E+00  1.2240764046172E+00
90  8.9000000000000E-01 -1.0516414833826E+00  1.2004087707459E+00
91  9.0000000000000E-01 -1.0367361644815E+00  1.1773443150390E+00
92  9.1000000000000E-01 -1.0147440337591E+00  1.1549366537818E+00
93  9.2000000000000E-01 -9.8595326743208E-01  1.1331912183119E+00
94  9.3000000000000E-01 -9.5075373934550E-01  1.1120657399814E+00
95  9.4000000000000E-01 -9.0963261821602E-01  1.0914720916530E+00
96  9.5000000000000E-01 -8.6316755999590E-01  1.0712794570078E+00
97  9.6000000000000E-01 -8.1201760952561E-01  1.0513187625128E+00
98  9.7000000000000E-01 -7.5691199030557E-01  1.0313882717015E+00
99  9.8000000000000E-01 -6.9863702200192E-01  1.0112602084739E+00
100  9.9000000000000E-01 -6.3802146050073E-01  9.9068824634342E-01
101  1.0000000000000E+00 -5.7592060326693E-01  9.6941567481552E-01
102  1.0100000000000E+00 -5.1319954206557E-01  9.4718403311623E-01
103  1.0200000000000E+00 -4.5071597448252E-01  9.2374198596463E-01
104  1.0300000000000E+00 -3.8930300423484E-01  8.9885420646077E-01
105  1.0400000000000E+00 -3.2975236732963E-01  8.7231002778249E-01
106  1.0500000000000E+00 -2.7279851632646E-01  8.4393162843109E-01
107  1.0600000000000E+00 -2.1910397835130E-01  8.1358152518212E-01
108  1.0700000000000E+00 -1.6924637431241E-01  7.8116916355061E-01
109  1.0800000000000E+00 -1.2370744770130E-01  7.4665641706455E-01
110  1.0900000000000E+00 -8.2864402403355E-02  7.1006183341472E-01
111  1.1000000000000E+00 -4.6983791111594E-02  6.7146349705566E-01
112  1.1100000000000E+00 -1.6218131203196E-02  6.3100041299940E-01
113  1.1200000000000E+00  9.3946457349463E-03  5.8887235484970E-01
114  1.1300000000000E+00  2.9928878327194E-02  5.4533816004134E-01
115  1.1400000000000E+00  4.5566037357037E-02  5.0071249629016E-01
116  1.1500000000000E+00  5.6586883808570E-02  4.5536116370430E-01
117  1.1600000000000E+00  6.3361114688735E-02  4.0969503639363E-01
118  1.1700000000000E+00  6.6334756332070E-02  3.6416278400499E-01
119  1.1800000000000E+00  6.6015627171928E-02  3.1924254707690E-01
120  1.1900000000000E+00  6.2957245537480E-02  2.7543276885696E-01
121  1.2000000000000E+00  5.7741602492929E-02  2.3324241004522E-01
122  1.2100000000000E+00  5.0961252944436E-02  1.9318079068184E-01
123  1.2200000000000E+00  4.3201141066997E-02  1.5574731195947E-01
124  1.2300000000000E+00  3.5021120123293E-02  1.2142133609862E-01
125  1.2400000000000E+00  2.6926424237968E-02  9.0651564439602E-02
126  1.2500000000000E+00  1.9321378966844E-02  6.3843108818866E-02
127  1.2600000000000E+00  1.2622451182668E-02  4.1359626767817E-02
128  1.2700000000000E+00  7.1650801289410E-03  2.3513140884822E-02
129  1.2800000000000E+00  3.1815699714756E-03  1.0559892281341E-02
130  1.2900000000000E+00  7.8438003816839E-04  2.6587423463279E-03
131  1.3000000000000E+00  1.8144863704807E-06  6.2712312701271E-06
132  1.3100000000000E+00  5.7018805611853E-06  1.9726747130047E-05
133  1.3200000000000E+00 -1.1933674475558E-06 -4.0751578918185E-06
134  1.33 -0.  0.
135  1.34  0.  0.
136  1.35  0.  0.
137  1.36  0.  0.
138  1.37  0.  0.
139  1.38  0.  0.
140  1.39  0.  0.
141  1.40  0.  0.
142  1.41  0.  0.
143  1.42  0.  0.
144  1.43  0.  0.
145  1.44  0.  0.
146  1.45  0.  0.
147  1.46  0.  0.
148  1.47  0.  0.
149  1.48  0.  0.
150  1.49  0.  0.
151  1.50  0.  0.
152  1.51  0.  0.
153  1.52  0.  0.
154  1.53  0.  0.
155  1.54  0.  0.
156  1.55  0.  0.
157  1.56  0.  0.
158  1.57  0.  0.
159  1.58  0.  0.
160  1.59  0.  0.
161  1.60  0.  0.
162  1.61  0.  0.
163  1.62  0.  0.
164  1.63  0.  0.
165  1.64  0.  0.
166  1.65  0.  0.
167  1.66  0.  0.
168  1.67  0.  0.
169  1.68  0.  0.
170  1.69  0.  0.
171  1.70  0.  0.
172  1.71  0.  0.
173  1.72  0.  0.
174  1.73  0.  0.
175  1.74  0.  0.
176  1.75  0.  0.
177  1.76  0.  0.
178  1.77  0.  0.
179  1.78  0.  0.
180  1.79  0.  0.
181  1.80  0.  0.
182  1.81  0.  0.
183  1.82  0.  0.
184  1.83  0.  0.
185  1.84  0.  0.
186  1.85  0.  0.
187  1.86  0.  0.
188  1.87  0.  0.
189  1.88  0.  0.
190  1.89  0.  0.
191  1.90  0.  0.
192  1.91  0.  0.
193  1.92  0.  0.
194  1.93  0.  0.
195  1.94  0.  0.
196  1.95  0.  0.
197  1.96  0.  0.
198  1.97  0.  0.
199  1.98  0.  0.
200  1.99  0.  0.
201  2.00  0.  0.
202  2.01  0.  0.
203  2.02  0.  0.
204  2.03  0.  0.
205  2.04  0.  0.
206  2.05  0.  0.
207  2.06  0.  0.
208  2.07  0.  0.
209  2.08  0.  0.
210  2.09  0.  0.
211  2.10  0.  0.
212  2.11  0.  0.
213  2.12  0.  0.
214  2.13  0.  0.
215  2.14  0.  0.
216  2.15  0.  0.
217  2.16  0.  0.
218  2.17  0.  0.
219  2.18  0.  0.
220  2.19  0.  0.
221  2.20  0.  0.
222  2.21  0.  0.
223  2.22  0.  0.
224  2.23  0.  0.
225  2.24  0.  0.
226  2.25  0.  0.
227  2.26  0.  0.
228  2.27  0.  0.
229  2.28  0.  0.
230  2.29  0.  0.
231  2.30  0.  0.
232  2.31  0.  0.
233  2.32  0.  0.
234  2.33  0.  0.
235  2.34  0.  0.
236  2.35  0.  0.
237  2.36  0.  0.
238  2.37  0.  0.
239  2.38  0.  0.
240  2.39  0.  0.
241  2.40  0.  0.
242  2.41  0.  0.
243  2.42  0.  0.
244  2.43  0.  0.
245  2.44  0.  0.
246  2.45  0.  0.
247  2.46  0.  0.
248  2.47  0.  0.
249  2.48  0.  0.
250  2.49  0.  0.
251  2.50  0.  0.
252  2.51  0.  0.
253  2.52  0.  0.
254  2.53  0.  0.
255  2.54  0.  0.
256  2.55  0.  0.
257  2.56  0.  0.
258  2.57  0.  0.
259  2.58  0.  0.
260  2.59  0.  0.
261  2.60  0.  0.
262  2.61  0.  0.
263  2.62  0.  0.
264  2.63  0.  0.
265  2.64  0.  0.
266  2.65  0.  0.
267  2.66  0.  0.
268  2.67  0.  0.
269  2.68  0.  0.
270  2.69  0.  0.
271  2.70  0.  0.
272  2.71  0.  0.
273  2.72  0.  0.
274  2.73  0.  0.
275  2.74  0.  0.
276  2.75  0.  0.
277  2.76  0.  0.
278  2.77  0.  0.
279  2.78  0.  0.
280  2.79  0.  0.
281  2.80  0.  0.
282  2.81  0.  0.
283  2.82  0.  0.
284  2.83  0.  0.
285  2.84  0.  0.
286  2.85  0.  0.
287  2.86  0.  0.
288  2.87  0.  0.
289  2.88  0.  0.
290  2.89  0.  0.
291  2.90  0.  0.
292  2.91  0.  0.
293  2.92  0.  0.
294  2.93  0.  0.
295  2.94  0.  0.
296  2.95  0.  0.
297  2.96  0.  0.
298  2.97  0.  0.
299  2.98  0.  0.
300  2.99  0.  0.
301  3.00  0.  0.
302  3.01  0.  0.
303  3.02  0.  0.
304  3.03  0.  0.
305  3.04  0.  0.
306  3.05  0.  0.
307  3.06  0.  0.
308  3.07  0.  0.
309  3.08  0.  0.
310  3.09  0.  0.
311  3.10  0.  0.
312  3.11  0.  0.
313  3.12  0.  0.
314  3.13  0.  0.
315  3.14  0.  0.
316  3.15  0.  0.
317  3.16  0.  0.
318  3.17  0.  0.
319  3.18  0.  0.
320  3.19  0.  0.
321  3.20  0.  0.
322  3.21  0.  0.
323  3.22  0.  0.
324  3.23  0.  0.
325  3.24  0.  0.
326  3.25  0.  0.
327  3.26  0.  0.
328  3.27  0.  0.
329  3.28  0.  0.