Te    ONCVPSP-4.0.1  r_core=   2.40752   2.20090   2.60222   2.20090
52.0000      6.0000      220131    zatom,zion,pspd
8      11   3     4   600     0    pspcod,pspxc,lmax,lloc,mmax,r2well
5.99000000  9.00000000  0.00000000    rchrg fchrg qchrg
2     2     2     2     0    nproj
1     1           extension_switch
0                         4.5815259558110E+00  3.8660830116377E-01
1  0.0000000000000E+00  1.9971718723255E-11 -6.9360905907700E-11
2  1.0000000000000E-02  2.2513274284051E-02 -3.1044986753461E-03
3  2.0000000000000E-02  4.5029622964296E-02 -6.2382535563892E-03
4  3.0000000000000E-02  6.7552028055242E-02 -9.4302312650133E-03
5  4.0000000000000E-02  9.0083287501760E-02 -1.2708821546069E-02
6  5.0000000000000E-02  1.1262592487356E-01 -1.6101554537650E-02
7  6.0000000000000E-02  1.3518210112056E-01 -1.9634824842587E-02
8  7.0000000000000E-02  1.5775352905265E-01 -2.3333624586345E-02
9  8.0000000000000E-02  1.8034139118723E-01 -2.7221287577175E-02
10  9.0000000000000E-02  2.0294626158318E-01 -3.1319246598651E-02
11  1.0000000000000E-01  2.2556803225102E-01 -3.5646805763209E-02
12  1.1000000000000E-01  2.4820584469492E-01 -4.0220929739072E-02
13  1.2000000000000E-01  2.7085802710506E-01 -4.5056051532295E-02
14  1.3000000000000E-01  2.9352203767714E-01 -5.0163900362344E-02
15  1.4000000000000E-01  3.1619441449094E-01 -5.5553351013911E-02
16  1.5000000000000E-01  3.3887073233176E-01 -6.1230295881458E-02
17  1.6000000000000E-01  3.6154556678759E-01 -6.7197540746985E-02
18  1.7000000000000E-01  3.8421246590151E-01 -7.3454725147427E-02
19  1.8000000000000E-01  4.0686392960316E-01 -7.9998267997083E-02
20  1.9000000000000E-01  4.2949139708651E-01 -8.6821338934147E-02
21  2.0000000000000E-01  4.5208524224218E-01 -9.3913855660169E-02
22  2.1000000000000E-01  4.7463477719406E-01 -1.0126250733865E-01
23  2.2000000000000E-01  4.9712826392990E-01 -1.0885080391556E-01
24  2.3000000000000E-01  5.1955293395664E-01 -1.1665915102187E-01
25  2.4000000000000E-01  5.4189501585181E-01 -1.2466494991770E-01
26  2.5000000000000E-01  5.6413977052478E-01 -1.3284272174136E-01
27  2.6000000000000E-01  5.8627153394474E-01 -1.4116425513490E-01
28  2.7000000000000E-01  6.0827376703745E-01 -1.4959877613362E-01
29  2.8000000000000E-01  6.3012911240035E-01 -1.5811313903088E-01
30  2.9000000000000E-01  6.5181945743541E-01 -1.6667203676241E-01
31  3.0000000000000E-01  6.7332600345190E-01 -1.7523822919942E-01
32  3.1000000000000E-01  6.9462934024768E-01 -1.8377278759538E-01
33  3.2000000000000E-01  7.1570952563726E-01 -1.9223535330162E-01
34  3.3000000000000E-01  7.3654616935866E-01 -2.0058440875071E-01
35  3.4000000000000E-01  7.5711852075913E-01 -2.0877755860541E-01
36  3.5000000000000E-01  7.7740555963204E-01 -2.1677181888681E-01
37  3.6000000000000E-01  7.9738608955459E-01 -2.2452391182672E-01
38  3.7000000000000E-01  8.1703883305748E-01 -2.3199056413883E-01
39  3.8000000000000E-01  8.3634252794497E-01 -2.3912880637030E-01
40  3.9000000000000E-01  8.5527602407534E-01 -2.4589627098023E-01
41  4.0000000000000E-01  8.7381837990914E-01 -2.5225148679526E-01
42  4.1000000000000E-01  8.9194895813459E-01 -2.5815416751367E-01
43  4.2000000000000E-01  9.0964751968721E-01 -2.6356549196968E-01
44  4.3000000000000E-01  9.2689431549300E-01 -2.6844837392717E-01
45  4.4000000000000E-01  9.4367017528236E-01 -2.7276771924745E-01
46  4.5000000000000E-01  9.5995659284421E-01 -2.7649066836838E-01
47  4.6000000000000E-01  9.7573580711697E-01 -2.7958682214075E-01
48  4.7000000000000E-01  9.9099087854513E-01 -2.8202844919293E-01
49  4.8000000000000E-01  1.0057057601660E+00 -2.8379067313347E-01
50  4.9000000000000E-01  1.0198653629316E+00 -2.8485163805554E-01
51  5.0000000000000E-01  1.0334556148140E+00 -2.8519265097177E-01
52  5.1000000000000E-01  1.0464635132916E+00 -2.8479829998665E-01
53  5.2000000000000E-01  1.0588771708616E+00 -2.8365654720017E-01
54  5.3000000000000E-01  1.0706858532795E+00 -2.8175879553332E-01
55  5.4000000000000E-01  1.0818800102824E+00 -2.7909992886930E-01
56  5.5000000000000E-01  1.0924512986064E+00 -2.7567832511397E-01
57  5.6000000000000E-01  1.1023925971735E+00 -2.7149584199255E-01
58  5.7000000000000E-01  1.1116980143789E+00 -2.6655777561581E-01
59  5.8000000000000E-01  1.1203628874717E+00 -2.6087279206619E-01
60  5.9000000000000E-01  1.1283837740834E+00 -2.5445283247085E-01
61  6.0000000000000E-01  1.1357584360192E+00 -2.4731299224235E-01
62  6.1000000000000E-01  1.1424858154861E+00 -2.3947137537864E-01
63  6.2000000000000E-01  1.1485660039905E+00 -2.3094892491695E-01
64  6.3000000000000E-01  1.1540002041971E+00 -2.2176923083503E-01
65  6.4000000000000E-01  1.1587906850922E+00 -2.1195831687984E-01
66  6.5000000000000E-01  1.1629407308501E+00 -2.0154440798314E-01
67  6.6000000000000E-01  1.1664545838486E+00 -1.9055768008846E-01
68  6.7000000000000E-01  1.1693373823280E+00 -1.7902999436786E-01
69  6.8000000000000E-01  1.1715950932273E+00 -1.6699461794509E-01
70  6.9000000000000E-01  1.1732344407730E+00 -1.5448593336497E-01
71  7.0000000000000E-01  1.1742628314290E+00 -1.4153913915560E-01
72  7.1000000000000E-01  1.1746882758432E+00 -1.2818994391864E-01
73  7.2000000000000E-01  1.1745193084570E+00 -1.1447425645368E-01
74  7.3000000000000E-01  1.1737649054557E+00 -1.0042787447469E-01
75  7.4000000000000E-01  1.1724344017606E+00 -8.6086174507890E-02
76  7.5000000000000E-01  1.1705374077661E+00 -7.1483805573279E-02
77  7.6000000000000E-01  1.1680837265322E+00 -5.6654389243255E-02
78  7.7000000000000E-01  1.1650832721404E+00 -4.1630228644004E-02
79  7.8000000000000E-01  1.1615459899132E+00 -2.6442028915968E-02
80  7.9000000000000E-01  1.1574817791849E+00 -1.1118631581842E-02
81  8.0000000000000E-01  1.1529004192931E+00  4.3132348186712E-03
82  8.1000000000000E-01  1.1478114994363E+00  1.9829185575087E-02
83  8.2000000000000E-01  1.1422243530152E+00  3.5407390007327E-02
84  8.3000000000000E-01  1.1361479970404E+00  5.1028759039816E-02
85  8.4000000000000E-01  1.1295910771521E+00  6.6677108326610E-02
86  8.5000000000000E-01  1.1225618187518E+00  8.2339295282318E-02
87  8.6000000000000E-01  1.1150679847030E+00  9.8005328564151E-02
88  8.7000000000000E-01  1.1071168400026E+00  1.1366844875426E-01
89  8.8000000000000E-01  1.0987151237720E+00  1.2932517920734E-01
90  8.9000000000000E-01  1.0898690288601E+00  1.4497534625455E-01
91  9.0000000000000E-01  1.0805841892885E+00  1.6062206818873E-01
92  9.1000000000000E-01  1.0708656757069E+00  1.7627171269802E-01
93  9.2000000000000E-01  1.0607179989623E+00  1.9193382266089E-01
94  9.3000000000000E-01  1.0501451218209E+00  2.0762101046610E-01
95  9.4000000000000E-01  1.0391504788128E+00  2.2334882127181E-01
96  9.5000000000000E-01  1.0277370041046E+00  2.3913556586961E-01
97  9.6000000000000E-01  1.0159071672375E+00  2.5500212406744E-01
98  9.7000000000000E-01  1.0036630165015E+00  2.7097171975024E-01
99  9.8000000000000E-01  9.9100622965322E-01  2.8706966901514E-01
100  9.9000000000000E-01  9.7793817161992E-01  3.0332310300868E-01
101  1.0000000000000E+00  9.6445995877134E-01  3.1976066731453E-01
102  1.0100000000000E+00  9.5057252928381E-01  3.3641219994850E-01
103  1.0200000000000E+00  9.3627671906384E-01  3.5330839021516E-01
104  1.0300000000000E+00  9.2157334264802E-01  3.7048042085988E-01
105  1.0400000000000E+00  9.0646327844717E-01  3.8795959611690E-01
106  1.0500000000000E+00  8.9094755765973E-01  4.0577695839988E-01
107  1.0600000000000E+00  8.7502745614032E-01  4.2396289651078E-01
108  1.0700000000000E+00  8.5870458847558E-01  4.4254674835044E-01
109  1.0800000000000E+00  8.4198100349099E-01  4.6155640120206E-01
110  1.0900000000000E+00  8.2485928038957E-01  4.8101789272325E-01
111  1.1000000000000E+00  8.0734262470640E-01  5.0095501582522E-01
112  1.1100000000000E+00  7.8943496325157E-01  5.2138893063671E-01
113  1.1200000000000E+00  7.7114103720978E-01  5.4233778674571E-01
114  1.1300000000000E+00  7.5246649256561E-01  5.6381635888384E-01
115  1.1400000000000E+00  7.3341796703160E-01  5.8583569916606E-01
116  1.1500000000000E+00  7.1400317266966E-01  6.0840280892223E-01
117  1.1600000000000E+00  6.9423097341711E-01  6.3152033305737E-01
118  1.1700000000000E+00  6.7411145675397E-01  6.5518627975630E-01
119  1.1800000000000E+00  6.5365599878146E-01  6.7939376820123E-01
120  1.1900000000000E+00  6.3287732201874E-01  7.0413080680743E-01
121  1.2000000000000E+00  6.1178954526928E-01  7.2938010429303E-01
122  1.2100000000000E+00  5.9040822495684E-01  7.5511891569413E-01
123  1.2200000000000E+00  5.6875038738507E-01  7.8131892521240E-01
124  1.2300000000000E+00  5.4683455143374E-01  8.0794616754021E-01
125  1.2400000000000E+00  5.2468074126672E-01  8.3496098905458E-01
126  1.2500000000000E+00  5.0231048869468E-01  8.6231805000035E-01
127  1.2600000000000E+00  4.7974682490459E-01  8.8996636850297E-01
128  1.2700000000000E+00  4.5701426134193E-01  9.1784940696203E-01
129  1.2800000000000E+00  4.3413875960672E-01  9.4590520107695E-01
130  1.2900000000000E+00  4.1114769030177E-01  9.7406653145454E-01
131  1.3000000000000E+00  3.8806978085059E-01  1.0022611374412E+00
132  1.3100000000000E+00  3.6493505238163E-01  1.0304119725138E+00
133  1.3200000000000E+00  3.4177474585550E-01  1.0584375002571E+00
134  1.3300000000000E+00  3.1862123769087E-01  1.0862520296519E+00
135  1.3400000000000E+00  2.9550794522360E-01  1.1137660881006E+00
136  1.3500000000000E+00  2.7246922241033E-01  1.1408868303243E+00
137  1.3600000000000E+00  2.4954024626270E-01  1.1675184809860E+00
138  1.3700000000000E+00  2.2675689457054E-01  1.1935628086279E+00
139  1.3800000000000E+00  2.0415561554159E-01  1.2189196282516E+00
140  1.3900000000000E+00  1.8177329005049E-01  1.2434873296334E+00
141  1.4000000000000E+00  1.5964708725128E-01  1.2671634282475E+00
142  1.4100000000000E+00  1.3781431436362E-01  1.2898451354641E+00
143  1.4200000000000E+00  1.1631226149489E-01  1.3114299445132E+00
144  1.4300000000000E+00  9.5178042406021E-02  1.3318162285435E+00
145  1.4400000000000E+00  7.4448432168699E-02  1.3509038469753E+00
146  1.4500000000000E+00  5.4159702695741E-02  1.3685947562348E+00
147  1.4600000000000E+00  3.4347457153263E-02  1.3847936208760E+00
148  1.4700000000000E+00  1.5046464284192E-02  1.3994084210417E+00
149  1.4800000000000E+00 -3.7095063141729E-03  1.4123510521857E+00
150  1.4900000000000E+00 -2.1887846909127E-02  1.4235379129786E+00
151  1.5000000000000E+00 -3.9457271299635E-02  1.4328904773508E+00
152  1.5100000000000E+00 -5.6387970391000E-02  1.4403358466786E+00
153  1.5200000000000E+00 -7.2651762651929E-02  1.4458072782094E+00
154  1.5300000000000E+00 -8.8222238451442E-02  1.4492446859319E+00
155  1.5400000000000E+00 -1.0307489730241E-01  1.4505951102385E+00
156  1.5500000000000E+00 -1.1718727707531E-01  1.4498131528949E+00
157  1.5600000000000E+00 -1.3053907428893E-01  1.4468613740232E+00
158  1.5700000000000E+00 -1.4311225463448E-01  1.4417106480238E+00
159  1.5800000000000E+00 -1.5489115294563E-01  1.4343404755994E+00
160  1.5900000000000E+00 -1.6586256188842E-01  1.4247392493089E+00
161  1.6000000000000E+00 -1.7601580871266E-01  1.4129044703596E+00
162  1.6100000000000E+00 -1.8534281947795E-01  1.3988429146465E+00
163  1.6200000000000E+00 -1.9383817024473E-01  1.3825707463649E+00
164  1.6300000000000E+00 -2.0149912480094E-01  1.3641135778524E+00
165  1.6400000000000E+00 -2.0832565857932E-01  1.3435064746603E+00
166  1.6500000000000E+00 -2.1432046850726E-01  1.3207939052049E+00
167  1.6600000000000E+00 -2.1948896862064E-01  1.2960296347111E+00
168  1.6700000000000E+00 -2.2383927136368E-01  1.2692765635249E+00
169  1.6800000000000E+00 -2.2738215458965E-01  1.2406065102363E+00
170  1.6900000000000E+00 -2.3013101436916E-01  1.2100999404244E+00
171  1.7000000000000E+00 -2.3210180380534E-01  1.1778456421971E+00
172  1.7100000000000E+00 -2.3331295814696E-01  1.1439403500596E+00
173  1.7200000000000E+00 -2.3378530658000E-01  1.1084883189947E+00
174  1.7300000000000E+00 -2.3354197116636E-01  1.0716008509799E+00
175  1.7400000000000E+00 -2.3260825348364E-01  1.0333957764936E+00
176  1.7500000000000E+00 -2.3101150960107E-01  9.9399689387603E-01
177  1.7600000000000E+00 -2.2878101410523E-01  9.5353336970692E-01
178  1.7700000000000E+00 -2.2594781396173E-01  9.1213910363560E-01
179  1.7800000000000E+00 -2.2254457306792E-01  8.6995206135719E-01
180  1.7900000000000E+00 -2.1860540841387E-01  8.2711357965704E-01
181  1.8000000000000E+00 -2.1416571882599E-01  7.8376764765313E-01
182  1.8100000000000E+00 -2.0926200731777E-01  7.4006016854508E-01
183  1.8200000000000E+00 -2.0393169811560E-01  6.9613820632971E-01
184  1.8300000000000E+00 -1.9821294946434E-01  6.5214922206529E-01
185  1.8400000000000E+00 -1.9214446334588E-01  6.0824030435817E-01
186  1.8500000000000E+00 -1.8576529326578E-01  5.6455739880613E-01
187  1.8600000000000E+00 -1.7911465127641E-01  5.2124454116199E-01
188  1.8700000000000E+00 -1.7223171541068E-01  4.7844309897734E-01
189  1.8800000000000E+00 -1.6515543869844E-01  4.3629102645229E-01
190  1.8900000000000E+00 -1.5792436092704E-01  3.9492213714848E-01
191  1.9000000000000E+00 -1.5057642428948E-01  3.5446539912442E-01
192  1.9100000000000E+00 -1.4314879403752E-01  3.1504425692191E-01
193  1.9200000000000E+00 -1.3567768522338E-01  2.7677598467117E-01
194  1.9300000000000E+00 -1.2819819657235E-01  2.3977107439278E-01
195  1.9400000000000E+00 -1.2074415248078E-01  2.0413266335616E-01
196  1.9500000000000E+00 -1.1334795407739E-01  1.6995600410559E-01
197  1.9600000000000E+00 -1.0604044022612E-01  1.3732798050176E-01
198  1.9700000000000E+00 -9.8850759279313E-02  1.0632667282504E-01
199  1.9800000000000E+00 -9.1806252316863E-02  7.7020974673235E-02
200  1.9900000000000E+00 -8.4932348529021E-02  4.9470264052644E-02
201  2.0000000000000E+00 -7.8252473316904E-02  2.3724130706890E-02
202  2.0100000000000E+00 -7.1787969598317E-02 -1.7783863690841E-04
203  2.0200000000000E+00 -6.5558032713090E-02 -2.2206215817293E-02
204  2.0300000000000E+00 -5.9579659236054E-02 -4.2341826655420E-02
205  2.0400000000000E+00 -5.3867609900975E-02 -6.0575785748621E-02
206  2.0500000000000E+00 -4.8434386748742E-02 -7.6909470522620E-02
207  2.0600000000000E+00 -4.3290224513112E-02 -9.1354434837669E-02
208  2.0700000000000E+00 -3.8443096159161E-02 -1.0393226284795E-01
209  2.0800000000000E+00 -3.3898732393081E-02 -1.1467436420981E-01
210  2.0900000000000E+00 -2.9660654868903E-02 -1.2362171211493E-01
211  2.1000000000000E+00 -2.5730222717471E-02 -1.3082452603342E-01
212  2.1100000000000E+00 -2.2106691937810E-02 -1.3634190139775E-01
213  2.1200000000000E+00 -1.8787287099895E-02 -1.4024138882761E-01
214  2.1300000000000E+00 -1.5767284723997E-02 -1.4259852583369E-01
215  2.1400000000000E+00 -1.3040107626634E-02 -1.4349632424084E-01
216  2.1500000000000E+00 -1.0597429439981E-02 -1.4302471690325E-01
217  2.1600000000000E+00 -8.4292884504981E-03 -1.4127996752790E-01
218  2.1700000000000E+00 -6.5242097582935E-03 -1.3836404813941E-01
219  2.1800000000000E+00 -4.8693348247977E-03 -1.3438398816901E-01
220  2.1900000000000E+00 -3.4505602885044E-03 -1.2945118298048E-01
221  2.2000000000000E+00 -2.2526704300844E-03 -1.2368075089808E-01
222  2.2100000000000E+00 -1.2595012681166E-03 -1.1719071540831E-01
223  2.2200000000000E+00 -4.5420772857012E-04 -1.1010059232331E-01
224  2.2300000000000E+00  1.8045471606551E-04 -1.0252992983142E-01
225  2.2400000000000E+00  6.6191974357754E-04 -9.4597287634720E-02
226  2.2500000000000E+00  1.0076570025808E-03 -8.6419555669043E-02
227  2.2600000000000E+00  1.2349850927323E-03 -7.8111116394208E-02
228  2.2700000000000E+00  1.3609552641634E-03 -6.9783260910050E-02
229  2.2800000000000E+00  1.4021327475659E-03 -6.1543272679785E-02
230  2.2900000000000E+00  1.3742208823961E-03 -5.3492986957405E-02
231  2.3000000000000E+00  1.2907326535293E-03 -4.5724133070939E-02
232  2.3100000000000E+00  1.1652876196737E-03 -3.8325886391548E-02
233  2.3200000000000E+00  1.0120058367838E-03 -3.1386067904727E-02
234  2.3300000000000E+00  8.4354920608210E-04 -2.4984470872553E-02
235  2.3400000000000E+00  6.7131915807876E-04 -1.9193388243429E-02
236  2.3500000000000E+00  5.0530813924258E-04 -1.4077000428868E-02
237  2.3600000000000E+00  3.5400854423271E-04 -9.6909696237544E-03
238  2.3700000000000E+00  2.2438786941405E-04 -6.0838901303179E-03
239  2.3800000000000E+00  1.2141565693993E-04 -3.2852603189931E-03
240  2.3900000000000E+00  4.8763893109009E-05 -1.3270914978073E-03
241  2.4000000000000E+00  1.0329163445561E-05 -2.8645342256150E-04
242  2.4100000000000E+00 -1.2392558605649E-06  3.2556006289708E-05
243  2.4200000000000E+00 -4.7000738758798E-07  1.2857636948883E-05
244  2.43  0. -0.
245  2.44 -0.  0.
246  2.45 -0.  0.
247  2.46  0. -0.
248  2.47  0.  0.
249  2.48  0.  0.
250  2.49  0.  0.
251  2.50  0.  0.
252  2.51  0.  0.
253  2.52  0.  0.
254  2.53  0.  0.
255  2.54  0.  0.
256  2.55  0.  0.
257  2.56  0.  0.
258  2.57  0.  0.
259  2.58  0.  0.
260  2.59  0.  0.
261  2.60  0.  0.
262  2.61  0.  0.
263  2.62  0.  0.
264  2.63  0.  0.
265  2.64  0.  0.
266  2.65  0.  0.
267  2.66  0.  0.
268  2.67  0.  0.
269  2.68  0.  0.
270  2.69  0.  0.
271  2.70  0.  0.
272  2.71  0.  0.
273  2.72  0.  0.
274  2.73  0.  0.
275  2.74  0.  0.
276  2.75  0.  0.
277  2.76  0.  0.
278  2.77  0.  0.
279  2.78  0.  0.
280  2.79  0.  0.
281  2.80  0.  0.
282  2.81  0.  0.
283  2.82  0.  0.
284  2.83  0.  0.
285  2.84  0.  0.
286  2.85  0.  0.
287  2.86  0.  0.
288  2.87  0.  0.
289  2.88  0.  0.
290  2.89  0.  0.
291  2.90  0.  0.
292  2.91  0.  0.
293  2.92  0.  0.
294  2.93  0.  0.
295  2.94  0.  0.
296  2.95  0.  0.
297  2.96  0.  0.
298  2.97  0.  0.
299  2.98  0.  0.
300  2.99  0.  0.
301  3.00  0.  0.
302  3.01  0.  0.
303  3.02  0.  0.
304  3.03  0.  0.
305  3.04  0.  0.
306  3.05  0.  0.
307  3.06  0.  0.
308  3.07  0.  0.
309  3.08  0.  0.
310  3.09  0.  0.
311  3.10  0.  0.
312  3.11  0.  0.
313  3.12  0.  0.
314  3.13  0.  0.
315  3.14  0.  0.
316  3.15  0.  0.
317  3.16  0.  0.
318  3.17  0.  0.
319  3.18  0.  0.
320  3.19  0.  0.
321  3.20  0.  0.
322  3.21  0.  0.
323  3.22  0.  0.
324  3.23  0.  0.
325  3.24  0.  0.
326  3.25  0.  0.
327  3.26  0.  0.
328  3.27  0.  0.
329  3.28  0.  0.
330  3.29  0.  0.
331  3.30  0.  0.
332  3.31  0.  0.
333  3.32  0.  0.
334  3.33  0.  0.
335  3.34  0.  0.
336  3.35  0.  0.
337  3.36  0.  0.
338  3.37  0.  0.
339  3.38  0.  0.
340  3.39  0.  0.
341  3.40  0.  0.
342  3.41  0.  0.
343  3.42  0.  0.
344  3.43  0.  0.
345  3.44  0.  0.
346  3.45  0.  0.
347  3.46  0.  0.
348  3.47  0.  0.
349  3.48  0.  0.
350  3.49  0.  0.
351  3.50  0.  0.
352  3.51  0.  0.
353  3.52  0.  0.
354  3.53  0.  0.
355  3.54  0.  0.
356  3.55  0.  0.
357  3.56  0.  0.
358  3.57  0.  0.
359  3.58  0.  0.
360  3.59  0.  0.
361  3.60  0.  0.
362  3.61  0.  0.
363  3.62  0.  0.
364  3.63  0.  0.
365  3.64  0.  0.
366  3.65  0.  0.
367  3.66  0.  0.
368  3.67  0.  0.
369  3.68  0.  0.
370  3.69  0.  0.
371  3.70  0.  0.
372  3.71  0.  0.
373  3.72  0.  0.
374  3.73  0.  0.
375  3.74  0.  0.
376  3.75  0.  0.
377  3.76  0.  0.
378  3.77  0.  0.
379  3.78  0.  0.
380  3.79  0.  0.
381  3.80  0.  0.
382  3.81  0.  0.
383  3.82  0.  0.
384  3.83  0.  0.
385  3.84  0.  0.
386  3.85  0.  0.
387  3.86  0.  0.
388  3.87  0.  0.
389  3.88  0.  0.
390  3.89  0.  0.
391  3.90  0.  0.
392  3.91  0.  0.
393  3.92  0.  0.
394  3.93  0.  0.
395  3.94  0.  0.
396  3.95  0.  0.
397  3.96  0.  0.
398  3.97  0.  0.
399  3.98  0.  0.
400  3.99  0.  0.
401  4.00  0.  0.
402  4.01  0.  0.
403  4.02  0.  0.
404  4.03  0.  0.
405  4.04  0.  0.
406  4.05  0.  0.
407  4.06  0.  0.
408  4.07  0.  0.
409  4.08  0.  0.
410  4.09  0.  0.
411  4.10  0.  0.
412  4.11  0.  0.
413  4.12  0.  0.
414  4.13  0.  0.
415  4.14  0.  0.
416  4.15  0.  0.
417  4.16  0.  0.
418  4.17  0.  0.
419  4.18  0.  0.
420  4.19  0.  0.
421  4.20  0.  0.
422  4.21  0.  0.
423  4.22  0.  0.
424  4.23  0.  0.
425  4.24  0.  0.
426  4.25  0.  0.
427  4.26  0.  0.
428  4.27  0.  0.
429  4.28  0.  0.
430  4.29  0.  0.
431  4.30  0.  0.
432  4.31  0.  0.
433  4.32  0.  0.
434  4.33  0.  0.
435  4.34  0.  0.
436  4.35  0.  0.
437  4.36  0.  0.
438  4.37  0.  0.
439  4.38  0.  0.
440  4.39  0.  0.
441  4.40  0.  0.
442  4.41  0.  0.
443  4.42  0.  0.
444  4.43  0.  0.
445  4.44  0.  0.
446  4.45  0.  0.
447  4.46  0.  0.
448  4.47  0.  0.
449  4.48  0.  0.
450  4.49  0.  0.
451  4.50  0.  0.
452  4.51  0.  0.
453  4.52  0.  0.
454  4.53  0.  0.
455  4.54  0.  0.
456  4.55  0.  0.
457  4.56  0.  0.
458  4.57  0.  0.
459  4.58  0.  0.
460  4.59  0.  0.
461  4.60  0.  0.
462  4.61  0.  0.
463  4.62  0.  0.
464  4.63  0.  0.
465  4.64  0.  0.
466  4.65  0.  0.
467  4.66  0.  0.
468  4.67  0.  0.
469  4.68  0.  0.
470  4.69  0.  0.
471  4.70  0.  0.
472  4.71  0.  0.
473  4.72  0.  0.
474  4.73  0.  0.
475  4.74  0.  0.
476  4.75  0.  0.
477  4.76  0.  0.
478  4.77  0.  0.
479  4.78  0.  0.
480  4.79  0.  0.
481  4.80  0.  0.
482  4.81  0.  0.
483  4.82  0.  0.
484  4.83  0.  0.
485  4.84  0.  0.
486  4.85  0.  0.
487  4.86  0.  0.
488  4.87  0.  0.
489  4.88  0.  0.
490  4.89  0.  0.
491  4.90  0.  0.
492  4.91  0.  0.
493  4.92  0.  0.
494  4.93  0.  0.
495  4.94  0.  0.
496  4.95  0.  0.
497  4.96  0.  0.
498  4.97  0.  0.
499  4.98  0.  0.
500  4.99  0.  0.
501  5.00  0.  0.
502  5.01  0.  0.
503  5.02  0.  0.
504  5.03  0.  0.
505  5.04  0.  0.
506  5.05  0.  0.
507  5.06  0.  0.
508  5.07  0.  0.
509  5.08  0.  0.
510  5.09  0.  0.
511  5.10  0.  0.
512  5.11  0.  0.
513  5.12  0.  0.
514  5.13  0.  0.
515  5.14  0.  0.
516  5.15  0.  0.
517  5.16  0.  0.
518  5.17  0.  0.
519  5.18  0.  0.
520  5.19  0.  0.
521  5.20  0.  0.
522  5.21  0.  0.
523  5.22  0.  0.
524  5.23  0.  0.
525  5.24  0.  0.
526  5.25  0.  0.
527  5.26  0.  0.
528  5.27  0.  0.
529  5.28  0.  0.
530  5.29  0.  0.
531  5.30  0.  0.
532  5.31  0.  0.
533  5.32  0.  0.
534  5.33  0.  0.
535  5.34  0.  0.
536  5.35  0.  0.
537  5.36  0.  0.
538  5.37  0.  0.
539  5.38  0.  0.
540  5.39  0.  0.
541  5.40  0.  0.
542  5.41  0.  0.
543  5.42  0.  0.
544  5.43  0.  0.
545  5.44  0.  0.
546  5.45  0.  0.
547  5.46  0.  0.
548  5.47  0.  0.
549  5.48  0.  0.
550  5.49  0.  0.
551  5.50  0.  0.
552  5.51  0.  0.
553  5.52  0.  0.
554  5.53  0.  0.
555  5.54  0.  0.
556  5.55  0.  0.
557  5.56  0.  0.
558  5.57  0.  0.
559  5.58  0.  0.
560  5.59  0.  0.
561  5.60  0.  0.
562  5.61  0.  0.
563  5.62  0.  0.
564  5.63  0.  0.
565  5.64  0.  0.
566  5.65  0.  0.
567  5.66  0.  0.
568  5.67  0.  0.
569  5.68  0.  0.
570  5.69  0.  0.
571  5.70  0.  0.
572  5.71  0.  0.
573  5.72  0.  0.
574  5.73  0.  0.
575  5.74  0.  0.
576  5.75  0.  0.
577  5.76  0.  0.
578  5.77  0.  0.
579  5.78  0.  0.
580  5.79  0.  0.
581  5.80  0.  0.
582  5.81  0.  0.
583  5.82  0.  0.
584  5.83  0.  0.
585  5.84  0.  0.
586  5.85  0.  0.
587  5.86  0.  0.
588  5.87  0.  0.
589  5.88  0.  0.
590  5.89  0.  0.
591  5.90  0.  0.
592  5.91  0.  0.
593  5.92  0.  0.
594  5.93  0.  0.
595  5.94  0.  0.
596  5.95  0.  0.
597  5.96  0.  0.
598  5.97  0.  0.
599  5.98  0.  0.
600  5.99  0.  0.
1                         3.0042865510928E+00  2.8461400490239E-01
1  0.0000000000000E+00  4.4307334190474E-10 -1.6742648448198E-09
2  1.0000000000000E-02  4.9614060610371E-04 -8.2471404851012E-04
3  2.0000000000000E-02  1.9821858620374E-03 -3.2905054975797E-03
4  3.0000000000000E-02  4.4510289820732E-03 -7.3724098901254E-03
5  4.0000000000000E-02  7.8909014199919E-03 -1.3029110994805E-02
6  5.0000000000000E-02  1.2285486171800E-02 -2.0203374423863E-02
7  6.0000000000000E-02  1.7614074723989E-02 -2.8822648375793E-02
8  7.0000000000000E-02  2.3851765992704E-02 -3.8799825258036E-02
9  8.0000000000000E-02  3.0969705156114E-02 -5.0034156270624E-02
10  9.0000000000000E-02  3.8935359860929E-02 -6.2412309438100E-02
11  1.0000000000000E-01  4.7712830888998E-02 -7.5809560081013E-02
12  1.1000000000000E-01  5.7263194005098E-02 -9.0091101334257E-02
13  1.2000000000000E-01  6.7544869376475E-02 -1.0511346106274E-01
14  1.3000000000000E-01  7.8514014661632E-02 -1.2072601040721E-01
15  1.4000000000000E-01  9.0124937613603E-02 -1.3677254822693E-01
16  1.5000000000000E-01  1.0233052383389E-01 -1.5309294490057E-01
17  1.6000000000000E-01  1.1508267514995E-01 -1.6952482831095E-01
18  1.7000000000000E-01  1.2833275397283E-01 -1.8590529437968E-01
19  1.8000000000000E-01  1.4203202892442E-01 -2.0207262423901E-01
20  1.9000000000000E-01  1.5613211700505E-01 -2.1786799003358E-01
21  2.0000000000000E-01  1.7058541760430E-01 -2.3313713143524E-01
22  2.1000000000000E-01  1.8534553373823E-01 -2.4773198522932E-01
23  2.2000000000000E-01  2.0036767602587E-01 -2.6151225078742E-01
24  2.3000000000000E-01  2.1560904509463E-01 -2.7434687487650E-01
25  2.4000000000000E-01  2.3102918832666E-01 -2.8611544005987E-01
26  2.5000000000000E-01  2.4659032712393E-01 -2.9670944191452E-01
27  2.6000000000000E-01  2.6225765117644E-01 -3.0603344141240E-01
28  2.7000000000000E-01  2.7799957656182E-01 -3.1400608007865E-01
29  2.8000000000000E-01  2.9378796488331E-01 -3.2056094693467E-01
30  2.9000000000000E-01  3.0959830106104E-01 -3.2564728774558E-01
31  3.0000000000000E-01  3.2540982782667E-01 -3.2923054870307E-01
32  3.1000000000000E-01  3.4120563542766E-01 -3.3129274837118E-01
33  3.2000000000000E-01  3.5697270552062E-01 -3.3183267348606E-01
34  3.3000000000000E-01  3.7270190871880E-01 -3.3086589601413E-01
35  3.4000000000000E-01  3.8838795575149E-01 -3.2842461071729E-01
36  3.5000000000000E-01  4.0402930268746E-01 -3.2455729433058E-01
37  3.6000000000000E-01  4.1962801116646E-01 -3.1932818930839E-01
38  3.7000000000000E-01  4.3518956506605E-01 -3.1281661691993E-01
39  3.8000000000000E-01  4.5072264550131E-01 -3.0511612625635E-01
40  3.9000000000000E-01  4.6623886650693E-01 -2.9633348743061E-01
41  4.0000000000000E-01  4.8175247418067E-01 -2.8658753889053E-01
42  4.1000000000000E-01  4.9728001246867E-01 -2.7600790030819E-01
43  4.2000000000000E-01  5.1283995914358E-01 -2.6473356393854E-01
44  4.3000000000000E-01  5.2845233586096E-01 -2.5291137864271E-01
45  4.4000000000000E-01  5.4413829647479E-01 -2.4069444193311E-01
46  4.5000000000000E-01  5.5991969804603E-01 -2.2824041640538E-01
47  4.6000000000000E-01  5.7581865918612E-01 -2.1570978776653E-01
48  4.7000000000000E-01  5.9185711053765E-01 -2.0326408234027E-01
49  4.8000000000000E-01  6.0805634230532E-01 -1.9106406242092E-01
50  4.9000000000000E-01  6.2443655381117E-01 -1.7926791815291E-01
51  5.0000000000000E-01  6.4101641005622E-01 -1.6802947472814E-01
52  5.1000000000000E-01  6.5781261022840E-01 -1.5749643361804E-01
53  5.2000000000000E-01  6.7483947300141E-01 -1.4780866628997E-01
54  5.3000000000000E-01  6.9210854332408E-01 -1.3909657840213E-01
55  5.4000000000000E-01  7.0962822520457E-01 -1.3147956182979E-01
56  5.5000000000000E-01  7.2740344475076E-01 -1.2506455105597E-01
57  5.6000000000000E-01  7.4543534743975E-01 -1.1994469946747E-01
58  5.7000000000000E-01  7.6372103325833E-01 -1.1619818994434E-01
59  5.8000000000000E-01  7.8225333298489E-01 -1.1388719282559E-01
60  5.9000000000000E-01  8.0102062847706E-01 -1.1305698289162E-01
61  6.0000000000000E-01  8.2000671938983E-01 -1.1373522543684E-01
62  6.1000000000000E-01  8.3919073828303E-01 -1.1593143983035E-01
63  6.2000000000000E-01  8.5854711558715E-01 -1.1963664719472E-01
64  6.3000000000000E-01  8.7804559538911E-01 -1.2482320699062E-01
65  6.4000000000000E-01  8.9765130247898E-01 -1.3144484539599E-01
66  6.5000000000000E-01  9.1732486057033E-01 -1.3943687643295E-01
67  6.6000000000000E-01  9.3702256107638E-01 -1.4871661484098E-01
68  6.7000000000000E-01  9.5669658129635E-01 -1.5918397774323E-01
69  6.8000000000000E-01  9.7629525034741E-01 -1.7072227022175E-01
70  6.9000000000000E-01  9.9576336067235E-01 -1.8319914802763E-01
71  7.0000000000000E-01  1.0150425224667E+00 -1.9646774882262E-01
72  7.1000000000000E-01  1.0340715579070E+00 -2.1036798159816E-01
73  7.2000000000000E-01  1.0527869316288E+00 -2.2472796226383E-01
74  7.3000000000000E-01  1.0711232135030E+00 -2.3936558185756E-01
75  7.4000000000000E-01  1.0890135693977E+00 -2.5409019241992E-01
76  7.5000000000000E-01  1.1063902752929E+00 -2.6870439430953E-01
77  7.6000000000000E-01  1.1231852498382E+00 -2.8300590762902E-01
78  7.7000000000000E-01  1.1393306002211E+00 -2.9678950949359E-01
79  7.8000000000000E-01  1.1547591760332E+00 -3.0984901811598E-01
80  7.9000000000000E-01  1.1694051257008E+00 -3.2197930411235E-01
81  8.0000000000000E-01  1.1832044499785E+00 -3.3297830905825E-01
82  8.1000000000000E-01  1.1960955469890E+00 -3.4264905114850E-01
83  8.2000000000000E-01  1.2080197433363E+00 -3.5080159784055E-01
84  8.3000000000000E-01  1.2189218059197E+00 -3.5725498558976E-01
85  8.4000000000000E-01  1.2287504292253E+00 -3.6183906721441E-01
86  8.5000000000000E-01  1.2374586930848E+00 -3.6439626805528E-01
87  8.6000000000000E-01  1.2450044861454E+00 -3.6478323291354E-01
88  8.7000000000000E-01  1.2513508906087E+00 -3.6287234675459E-01
89  8.8000000000000E-01  1.2564665241504E+00 -3.5855311334402E-01
90  8.9000000000000E-01  1.2603258353323E+00 -3.5173337732514E-01
91  9.0000000000000E-01  1.2629093492585E+00 -3.4234037674196E-01
92  9.1000000000000E-01  1.2642038607038E+00 -3.3032161464317E-01
93  9.2000000000000E-01  1.2642025724470E+00 -3.1564554015514E-01
94  9.3000000000000E-01  1.2629051770741E+00 -2.9830203126927E-01
95  9.4000000000000E-01  1.2603178810723E+00 -2.7830267353198E-01
96  9.5000000000000E-01  1.2564533705998E+00 -2.5568083083546E-01
97  9.6000000000000E-01  1.2513307188992E+00 -2.3049150656429E-01
98  9.7000000000000E-01  1.2449752359021E+00 -2.0281099543668E-01
99  9.8000000000000E-01  1.2374182611514E+00 -1.7273632846860E-01
100  9.9000000000000E-01  1.2286969017461E+00 -1.4038451556372E-01
101  1.0000000000000E+00  1.2188537175647E+00 -1.0589159226981E-01
102  1.0100000000000E+00  1.2079363565700E+00 -6.9411479225461E-02
103  1.0200000000000E+00  1.1959971435085E+00 -3.1114664726034E-02
104  1.0300000000000E+00  1.1830926258047E+00  8.8132773528451E-03
105  1.0400000000000E+00  1.1692830808993E+00  5.0173320340512E-02