<?xml version="1.0" encoding="UTF-8" ?>
<psml version="1.1" energy_unit="hartree" length_unit="bohr"
 uuid="4481f220-c73e-11ed-7d70-fdbad9bd402c"
 xmlns="http://esl.cecam.org/PSML/ns/1.1">
<provenance creator="ONCVPSP-4.0.1+psml-4.0.1-76 (scalar-relativistic)"
 date="2023-03-20">
<annotation action="semilocal-pseudopotential-generation"
 action-cont="projectors-generation" />
<input-file name="oncvpsp-input">
<![CDATA[# atsym z nc nv iexc psfile
Te 52 9 2 4 both
# n l f
1 0 2.0
2 0 2.0
2 1 6.0
3 0 2.0
3 1 6.0
3 2 10.0
4 0 2.0
4 1 6.0
4 2 10.0
5 0 2.0
5 1 4.0
# lmax
3
# l rc ep ncon nbas qcut
0 2.4 0.0 4 8 4.4
1 2.2 0.0 4 8 4.8
2 2.6 0.1 4 7 4.2
3 2.2 0.05 4 8 6.0
# lloc lpopt rc5 dvloc0
4 5 2.2 0.0
# l nproj debl
0 2 1.5
1 2 1.5
2 2 3.0
3 2 2.0
# icmod fcfact rcfact
3 9.0 1.2
# epsh1 epsh2 depsh
-12.0 12.0 0.02
# rlmax drl
6.0 0.01
 0
]]>
</input-file>
</provenance>
<pseudo-atom-spec atomic-label="Te" atomic-number="52" z-pseudo="6"
 flavor="Hamann&apos;s oncvpsp" relativity="scalar" spin-dft="no"
 core-corrections="yes">
<annotation pseudo-energy="-8.17258360272" cutoff_hint_low="11"
 cutoff_hint_normal="15" cutoff_hint_high="36" />
<exchange-correlation>
<annotation oncvpsp-xc-code="4" oncvpsp-xc-type="GGA -- Perdew-Burke-Ernzerhof" />
<libxc-info number-of-functionals="2">
<functional name="Perdew, Burke &amp; Ernzerhof (GGA)" type="exchange" id="101" />
<functional name="Perdew, Burke &amp; Ernzerhof (GGA)" type="correlation"
 id="130" />
</libxc-info>
</exchange-correlation>
<valence-configuration total-valence-charge="6">
<shell n="5" l="s" occupation="2" />
<shell n="5" l="p" occupation="4" />
</valence-configuration>
</pseudo-atom-spec>
<grid npts="797">
<annotation type="sampled from oncvpsp log grid"
 recipe="r(i:1..N) = r1*exp(a*(i-1)) + r=0; resampled"
 recipe-cont="r1: scale; a: step" scale="0.961538461538E-05"
 step="0.598207167755E-02" delta="0.500000000000E-02" rmax="44.6051688792" />
<grid-data>
  0.000000000000E+00  5.017120058604E-03  1.004200092945E-02  1.508283382330E-02
  2.009953548832E-02  2.522953743384E-02  3.037013276145E-02  3.548086418588E-02
  4.071437249694E-02  4.588886964498E-02  5.110589673098E-02  5.623914435990E-02
  6.151887931687E-02  6.689291866307E-02  7.230259667183E-02  7.768365725326E-02
  8.296739442339E-02  8.808201852643E-02  9.351193973981E-02  9.868448800241E-02
  1.041431521942E-01  1.092482690059E-01  1.146036395991E-01  1.202215314611E-01
  1.253626376079E-01  1.307235959900E-01  1.363138082815E-01  1.421430782063E-01
  1.473376031120E-01  1.527219584992E-01  1.583030815977E-01  1.640881631534E-01
  1.700846566934E-01  1.752487953570E-01  1.805697284584E-01  1.860522166165E-01
  1.917011649928E-01  1.975216276802E-01  2.035188122248E-01  2.096980842850E-01
  2.147763145449E-01  2.199775236230E-01  2.253046896808E-01  2.307608630013E-01
  2.363491677362E-01  2.420728036941E-01  2.479350481730E-01  2.539392578367E-01
  2.600888706371E-01  2.663874077824E-01  2.728384757532E-01  2.794457683680E-01
  2.845060327019E-01  2.896579293954E-01  2.949031177470E-01  3.002432871023E-01
  3.056801573977E-01  3.112154797147E-01  3.168510368439E-01  3.225886438589E-01
  3.284301487011E-01  3.343774327747E-01  3.404324115529E-01  3.465970351947E-01
  3.528732891729E-01  3.592631949139E-01  3.657688104483E-01  3.723922310739E-01
  3.791355900309E-01  3.860010591885E-01  3.929908497445E-01  4.001072129377E-01
  4.073524407728E-01  4.147288667584E-01  4.222388666591E-01  4.273209336582E-01
  4.324641684157E-01  4.376693071468E-01  4.429370949276E-01  4.482682858021E-01
  4.536636428900E-01  4.591239384959E-01  4.646499542196E-01  4.702424810686E-01
  4.759023195707E-01  4.816302798891E-01  4.874271819378E-01  4.932938554996E-01
  4.992311403444E-01  5.052398863496E-01  5.113209536217E-01  5.174752126195E-01
  5.237035442786E-01  5.300068401375E-01  5.363860024654E-01  5.428419443911E-01
  5.493755900338E-01  5.559878746354E-01  5.626797446946E-01  5.694521581017E-01
  5.763060842766E-01  5.832425043070E-01  5.902624110888E-01  5.973668094687E-01
  6.045567163874E-01  6.118331610259E-01  6.191971849520E-01  6.266498422701E-01
  6.341921997716E-01  6.418253370881E-01  6.495503468453E-01  6.573683348199E-01
  6.652804200978E-01  6.732877352341E-01  6.813914264154E-01  6.895926536237E-01
  6.978925908027E-01  7.062924260256E-01  7.147933616653E-01  7.233966145663E-01
  7.321034162192E-01  7.409150129368E-01  7.498326660325E-01  7.588576520009E-01
  7.679912627003E-01  7.772348055382E-01  7.865896036577E-01  7.960569961273E-01
  8.056383381327E-01  8.153350011704E-01  8.251483732445E-01  8.350798590649E-01
  8.400903382193E-01  8.451308802486E-01  8.502016655301E-01  8.553028755233E-01
  8.604346927764E-01  8.655973009331E-01  8.707908847387E-01  8.760156300471E-01
  8.812717238274E-01  8.865593541704E-01  8.918787102954E-01  8.972299825571E-01
  9.026133624525E-01  9.080290426272E-01  9.134772168830E-01  9.189580801843E-01
  9.244718286654E-01  9.300186596374E-01  9.355987715952E-01  9.412123642248E-01
  9.468596384101E-01  9.525407962406E-01  9.582560410180E-01  9.640055772641E-01
  9.697896107277E-01  9.756083483921E-01  9.814619984824E-01  9.873507704733E-01
  9.932748750962E-01  9.992345243467E-01  1.005229931493E+00  1.011261311082E+00
  1.017328878948E+00  1.023432852222E+00  1.029573449335E+00  1.035750890031E+00
  1.041965395371E+00  1.048217187744E+00  1.054506490870E+00  1.060833529815E+00
  1.067198530994E+00  1.073601722180E+00  1.080043332513E+00  1.086523592508E+00
  1.093042734063E+00  1.099600990468E+00  1.106198596411E+00  1.112835787989E+00
  1.119512802717E+00  1.126229879533E+00  1.132987258811E+00  1.139785182363E+00
  1.146623893458E+00  1.153503636818E+00  1.160424658639E+00  1.167387206591E+00
  1.174391529831E+00  1.181437879010E+00  1.188526506284E+00  1.195657665321E+00
  1.202831611313E+00  1.210048600981E+00  1.217308892587E+00  1.224612745943E+00
  1.231960422418E+00  1.239352184953E+00  1.246788298062E+00  1.254269027851E+00
  1.261794642018E+00  1.269365409870E+00  1.276981602329E+00  1.284643491943E+00
  1.292351352895E+00  1.300105461012E+00  1.307906093778E+00  1.315753530341E+00
  1.323648051523E+00  1.331589939832E+00  1.339579479471E+00  1.347616956348E+00
  1.355702658086E+00  1.363836874035E+00  1.372019895279E+00  1.380252014651E+00
  1.388533526738E+00  1.396864727899E+00  1.405245916266E+00  1.413677391764E+00
  1.422159456114E+00  1.430692412851E+00  1.439276567328E+00  1.447912226732E+00
  1.456599700093E+00  1.465339298293E+00  1.474131334083E+00  1.482976122087E+00
  1.491873978820E+00  1.500825222693E+00  1.509830174029E+00  1.518889155073E+00
  1.528002490004E+00  1.537170504944E+00  1.546393527973E+00  1.555671889141E+00
  1.565005920476E+00  1.574395955999E+00  1.583842331735E+00  1.593345385725E+00
  1.602905458040E+00  1.612522890788E+00  1.622198028133E+00  1.631931216301E+00
  1.641722803599E+00  1.651573140421E+00  1.661482579263E+00  1.671451474739E+00
  1.681480183587E+00  1.691569064689E+00  1.701718479077E+00  1.711928789951E+00
  1.722200362691E+00  1.732533564867E+00  1.742928766256E+00  1.753386338854E+00
  1.763906656887E+00  1.774490096828E+00  1.785137037409E+00  1.795847859634E+00
  1.806622946792E+00  1.817462684472E+00  1.828367460579E+00  1.839337665343E+00
  1.850373691335E+00  1.861475933483E+00  1.872644789084E+00  1.883880657818E+00
  1.895183941765E+00  1.906555045416E+00  1.917994375688E+00  1.929502341942E+00
  1.941079355994E+00  1.952725832130E+00  1.964442187123E+00  1.976228840245E+00
  1.988086213287E+00  2.000014730567E+00  2.012014818950E+00  2.024086907864E+00
  2.036231429311E+00  2.048448817887E+00  2.060739510794E+00  2.073103947859E+00
  2.085542571546E+00  2.098055826975E+00  2.110644161937E+00  2.123308026909E+00
  2.136047875070E+00  2.148864162321E+00  2.161757347295E+00  2.174727891378E+00
  2.187776258727E+00  2.200902916279E+00  2.214108333777E+00  2.227392983779E+00
  2.240757341682E+00  2.254201885732E+00  2.267727097047E+00  2.281333459629E+00
  2.295021460387E+00  2.308791589149E+00  2.322644338684E+00  2.336580204716E+00
  2.350599685944E+00  2.364703284060E+00  2.378891503764E+00  2.393164852787E+00
  2.407523841903E+00  2.421968984955E+00  2.436500798865E+00  2.451119803658E+00
  2.465826522480E+00  2.480621481615E+00  2.495505210504E+00  2.510478241767E+00
  2.525541111218E+00  2.540694357885E+00  2.555938524033E+00  2.571274155177E+00
  2.586701800108E+00  2.602222010909E+00  2.617835342974E+00  2.633542355032E+00
  2.649343609162E+00  2.665239670817E+00  2.681231108842E+00  2.697318495495E+00
  2.713502406468E+00  2.729783420907E+00  2.746162121432E+00  2.762639094161E+00
  2.779214928726E+00  2.795890218298E+00  2.812665559608E+00  2.829541552965E+00
  2.846518802283E+00  2.863597915097E+00  2.880779502588E+00  2.898064179603E+00
  2.915452564681E+00  2.932945280069E+00  2.950542951749E+00  2.968246209460E+00
  2.986055686716E+00  3.003972020837E+00  3.021995852962E+00  3.040127828080E+00
  3.058368595048E+00  3.076718806618E+00  3.095179119458E+00  3.113750194175E+00
  3.132432695340E+00  3.151227291512E+00  3.170134655261E+00  3.189155463192E+00
  3.208290395972E+00  3.227540138347E+00  3.246905379178E+00  3.266386811453E+00
  3.285985132321E+00  3.305701043115E+00  3.325535249374E+00  3.345488460870E+00
  3.365561391635E+00  3.385754759985E+00  3.406069288545E+00  3.426505704276E+00
  3.447064738502E+00  3.467747126933E+00  3.488553609695E+00  3.509484931353E+00
  3.530541840941E+00  3.551725091987E+00  3.573035442539E+00  3.594473655194E+00
  3.616040497125E+00  3.637736740108E+00  3.659563160548E+00  3.681520539512E+00
  3.703609662749E+00  3.725831320725E+00  3.748186308650E+00  3.770675426501E+00
  3.793299479060E+00  3.816059275935E+00  3.838955631590E+00  3.861989365380E+00
  3.885161301572E+00  3.908472269382E+00  3.931923102998E+00  3.955514641616E+00
  3.979247729466E+00  4.003123215842E+00  4.027141955137E+00  4.051304806868E+00
  4.075612635710E+00  4.100066311524E+00  4.124666709393E+00  4.149414709649E+00
  4.174311197907E+00  4.199357065095E+00  4.224553207485E+00  4.249900526730E+00
  4.275399929890E+00  4.301052329470E+00  4.326858643447E+00  4.352819795307E+00
  4.378936714079E+00  4.405210334364E+00  4.431641596370E+00  4.458231445948E+00
  4.484980834624E+00  4.511890719631E+00  4.538962063949E+00  4.566195836333E+00
  4.593593011351E+00  4.621154569419E+00  4.648881496836E+00  4.676774785817E+00
  4.704835434531E+00  4.733064447139E+00  4.761462833822E+00  4.790031610824E+00
  4.818771800489E+00  4.847684431292E+00  4.876770537880E+00  4.906031161107E+00
  4.935467348074E+00  4.965080152162E+00  4.994870633075E+00  5.024839856874E+00
  5.054988896015E+00  5.085318829391E+00  5.115830742368E+00  5.146525726822E+00
  5.177404881183E+00  5.208469310470E+00  5.239720126333E+00  5.271158447091E+00
  5.302785397773E+00  5.334602110160E+00  5.366609722821E+00  5.398809381158E+00
  5.431202237445E+00  5.463789450869E+00  5.496572187574E+00  5.529551620700E+00
  5.562728930424E+00  5.596105304007E+00  5.629681935831E+00  5.663460027446E+00
  5.697440787610E+00  5.731625432336E+00  5.766015184930E+00  5.800611276040E+00
  5.835414943696E+00  5.870427433358E+00  5.905649997958E+00  5.941083897946E+00
  5.976730401334E+00  6.012590783742E+00  6.048666328444E+00  6.084958326415E+00
  6.121468076373E+00  6.158196884831E+00  6.195146066140E+00  6.232316942537E+00
  6.269710844193E+00  6.307329109258E+00  6.345173083913E+00  6.383244122417E+00
  6.421543587151E+00  6.460072848674E+00  6.498833285766E+00  6.537826285481E+00
  6.577053243194E+00  6.616515562653E+00  6.656214656029E+00  6.696151943965E+00
  6.736328855629E+00  6.776746828762E+00  6.817407309735E+00  6.858311753593E+00
  6.899461624115E+00  6.940858393860E+00  6.982503544223E+00  7.024398565488E+00
  7.066544956881E+00  7.108944226622E+00  7.151597891982E+00  7.194507479334E+00
  7.237674524210E+00  7.281100571355E+00  7.324787174783E+00  7.368735897832E+00
  7.412948313219E+00  7.457426003098E+00  7.502170559117E+00  7.547183582472E+00
  7.592466683967E+00  7.638021484070E+00  7.683849612975E+00  7.729952710653E+00
  7.776332426917E+00  7.822990421478E+00  7.869928364007E+00  7.917147934191E+00
  7.964650821796E+00  8.012438726727E+00  8.060513359087E+00  8.108876439242E+00
  8.157529697877E+00  8.206474876064E+00  8.255713725321E+00  8.305248007673E+00
  8.355079495719E+00  8.405209972693E+00  8.455641232529E+00  8.506375079924E+00
  8.557413330404E+00  8.608757810386E+00  8.660410357249E+00  8.712372819392E+00
  8.764647056309E+00  8.817234938646E+00  8.870138348278E+00  8.923359178368E+00
  8.976899333438E+00  9.030760729439E+00  9.084945293815E+00  9.139454965578E+00
  9.194291695372E+00  9.249457445544E+00  9.304954190217E+00  9.360783915359E+00
  9.416948618851E+00  9.473450310564E+00  9.530291012427E+00  9.587472758502E+00
  9.644997595053E+00  9.702867580623E+00  9.761084786107E+00  9.819651294824E+00
  9.878569202592E+00  9.937840617808E+00  9.997467661515E+00  1.005745246748E+01
  1.011779718229E+01  1.017850396538E+01  1.023957498917E+01  1.030101243911E+01
  1.036281851374E+01  1.042499542483E+01  1.048754539738E+01  1.055047066976E+01
  1.061377349378E+01  1.067745613474E+01  1.074152087155E+01  1.080596999678E+01
  1.087080581676E+01  1.093603065166E+01  1.100164683557E+01  1.106765671658E+01
  1.113406265688E+01  1.120086703282E+01  1.126807223502E+01  1.133568066843E+01
  1.140369475244E+01  1.147211692096E+01  1.154094962248E+01  1.161019532022E+01
  1.167985649214E+01  1.174993563109E+01  1.182043524488E+01  1.189135785635E+01
  1.196270600349E+01  1.203448223951E+01  1.210668913294E+01  1.217932926774E+01
  1.225240524335E+01  1.232591967481E+01  1.239987519286E+01  1.247427444401E+01
  1.254912009068E+01  1.262441481122E+01  1.270016130009E+01  1.277636226789E+01
  1.285302044150E+01  1.293013856415E+01  1.300771939553E+01  1.308576571190E+01
  1.316428030618E+01  1.324326598801E+01  1.332272558394E+01  1.340266193744E+01
  1.348307790907E+01  1.356397637652E+01  1.364536023478E+01  1.372723239619E+01
  1.380959579057E+01  1.389245336531E+01  1.397580808550E+01  1.405966293402E+01
  1.414402091162E+01  1.422888503709E+01  1.431425834731E+01  1.440014389740E+01
  1.448654476078E+01  1.457346402935E+01  1.466090481352E+01  1.474887024240E+01
  1.483736346386E+01  1.492638764464E+01  1.501594597051E+01  1.510604164633E+01
  1.519667789621E+01  1.528785796359E+01  1.537958511137E+01  1.547186262204E+01
  1.556469379777E+01  1.565808196056E+01  1.575203045232E+01  1.584654263503E+01
  1.594162189084E+01  1.603727162219E+01  1.613349525192E+01  1.623029622343E+01
  1.632767800077E+01  1.642564406878E+01  1.652419793319E+01  1.662334312079E+01
  1.672308317951E+01  1.682342167859E+01  1.692436220866E+01  1.702590838192E+01
  1.712806383221E+01  1.723083221520E+01  1.733421720849E+01  1.743822251174E+01
  1.754285184681E+01  1.764810895789E+01  1.775399761164E+01  1.786052159731E+01
  1.796768472689E+01  1.807549083526E+01  1.818394378027E+01  1.829304744295E+01
  1.840280572761E+01  1.851322256197E+01  1.862430189734E+01  1.873604770873E+01
  1.884846399498E+01  1.896155477895E+01  1.907532410762E+01  1.918977605227E+01
  1.930491470858E+01  1.942074419684E+01  1.953726866202E+01  1.965449227399E+01
  1.977241922763E+01  1.989105374300E+01  2.001040006546E+01  2.013046246585E+01
  2.025124524064E+01  2.037275271209E+01  2.049498922836E+01  2.061795916373E+01
  2.074166691871E+01  2.086611692022E+01  2.099131362175E+01  2.111726150348E+01
  2.124396507250E+01  2.137142886293E+01  2.149965743611E+01  2.162865538073E+01
  2.175842731301E+01  2.188897787689E+01  2.202031174415E+01  2.215243361462E+01
  2.228534821630E+01  2.241906030560E+01  2.255357466743E+01  2.268889611544E+01
  2.282502949213E+01  2.296197966908E+01  2.309975154710E+01  2.323835005638E+01
  2.337778015672E+01  2.351804683766E+01  2.365915511869E+01  2.380111004940E+01
  2.394391670969E+01  2.408758020995E+01  2.423210569121E+01  2.437749832536E+01
  2.452376331531E+01  2.467090589520E+01  2.481893133058E+01  2.496784491856E+01
  2.511765198807E+01  2.526835790000E+01  2.541996804740E+01  2.557248785568E+01
  2.572592278282E+01  2.588027831951E+01  2.603555998943E+01  2.619177334937E+01
  2.634892398946E+01  2.650701753340E+01  2.666605963860E+01  2.682605599643E+01
  2.698701233241E+01  2.714893440641E+01  2.731182801284E+01  2.747569898092E+01
  2.764055317481E+01  2.780639649386E+01  2.797323487282E+01  2.814107428206E+01
  2.830992072775E+01  2.847978025211E+01  2.865065893363E+01  2.882256288723E+01
  2.899549826455E+01  2.916947125414E+01  2.934448808166E+01  2.952055501015E+01
  2.969767834022E+01  2.987586441026E+01  3.005511959672E+01  3.023545031430E+01
  3.041686301618E+01  3.059936419428E+01  3.078296037945E+01  3.096765814172E+01
  3.115346409057E+01  3.134038487512E+01  3.152842718437E+01  3.171759774747E+01
  3.190790333396E+01  3.209935075396E+01  3.229194685849E+01  3.248569853964E+01
  3.268061273088E+01  3.287669640726E+01  3.307395658570E+01  3.327240032522E+01
  3.347203472717E+01  3.367286693553E+01  3.387490413715E+01  3.407815356197E+01
  3.428262248334E+01  3.448831821824E+01  3.469524812755E+01  3.490341961632E+01
  3.511284013401E+01  3.532351717482E+01  3.553545827787E+01  3.574867102753E+01
  3.596316305370E+01  3.617894203202E+01  3.639601568421E+01  3.661439177832E+01
  3.683407812899E+01  3.705508259776E+01  3.727741309335E+01  3.750107757191E+01
  3.772608403734E+01  3.795244054156E+01  3.818015518481E+01  3.840923611592E+01
  3.863969153262E+01  3.887152968181E+01  3.910475885990E+01  3.933938741306E+01
  3.957542373754E+01  3.981287627997E+01  4.005175353765E+01  4.029206405887E+01
  4.053381644323E+01  4.077701934189E+01  4.102168145794E+01  4.126781154669E+01
  4.151541841597E+01  4.176451092646E+01  4.201509799202E+01  4.226718857997E+01
  4.252079171145E+01  4.277591646172E+01  4.303257196049E+01  4.329076739225E+01
  4.355051199661E+01  4.381181506859E+01  4.407468595900E+01  4.433913407475E+01
  4.460516887920E+01
</grid-data>
</grid>
<valence-charge total-charge="6" is-unscreening-charge="yes"
 rescaled-to-z-pseudo="no">
<radfunc>
<data npts="797">
  2.294277485408E-03  2.297997006429E-03  2.309184943257E-03  2.327931624667E-03
  2.354101497344E-03  2.388659441926E-03  2.431258167779E-03  2.481592058751E-03
  2.541475267401E-03  2.609085724692E-03  2.685831357095E-03  2.769884861579E-03
  2.865326400656E-03  2.972009580579E-03  3.089315201030E-03  3.216083255406E-03
  3.350565534164E-03  3.490407762655E-03  3.649526970937E-03  3.811564594827E-03
  3.993923530713E-03  4.175303605579E-03  4.377132019018E-03  4.601926656041E-03
  4.819705347011E-03  5.059427360109E-03  5.323532322851E-03  5.614765586317E-03
  5.888320801579E-03  6.186252310300E-03  6.510979310780E-03  6.865190819435E-03
  7.251878742792E-03  7.601319842545E-03  7.977750340222E-03  8.383502503543E-03
  8.821132664991E-03  9.293444328381E-03  9.803513704175E-03  1.035471791671E-02
  1.082777892164E-02  1.133159931121E-02  1.186840761217E-02  1.244060791607E-02
  1.305079422214E-02  1.370176591923E-02  1.439654448555E-02  1.513839148759E-02
  1.593082796259E-02  1.677765527082E-02  1.768297750550E-02  1.865122554860E-02
  1.942157016937E-02  2.023215048714E-02  2.108525072134E-02  2.198328957801E-02
  2.292882790132E-02  2.392457669245E-02  2.497340550327E-02  2.607835121100E-02
  2.724262717803E-02  2.846963279930E-02  2.976296343687E-02  3.112642073850E-02
  3.256402333382E-02  3.408001789727E-02  3.567889056305E-02  3.736537867143E-02
  3.914448282032E-02  4.102147918880E-02  4.300193209178E-02  4.509170671620E-02
  4.729698197928E-02  4.962426343829E-02  5.208039616916E-02  5.379294139789E-02
  5.556816728319E-02  5.740836960897E-02  5.931591940211E-02  6.129326445296E-02
  6.334293077610E-02  6.546752400066E-02  6.766973067824E-02  6.995231949582E-02
  7.231814237974E-02  7.477013547600E-02  7.731131999083E-02  7.994480287439E-02
  8.267377732906E-02  8.550152312276E-02  8.843140668615E-02  9.146688097118E-02
  9.461148504727E-02  9.786884340956E-02  1.012426649724E-01  1.047367417199E-01
  1.083549469827E-01  1.121012333103E-01  1.159796299058E-01  1.199942395868E-01
  1.241492352378E-01  1.284488557156E-01  1.328974011683E-01  1.374992277264E-01
  1.422587415257E-01  1.471803920167E-01  1.522686645179E-01  1.575280719659E-01
  1.629631458181E-01  1.685784260608E-01  1.743784502756E-01  1.803677417184E-01
  1.865507963652E-01  1.929320688779E-01  1.995159574481E-01  2.063067874763E-01
  2.133087940450E-01  2.205261031517E-01  2.279627116657E-01  2.356224659808E-01
  2.435090393391E-01  2.516259078077E-01  2.599763248947E-01  2.685632948017E-01
  2.773895443138E-01  2.864574933408E-01  2.957692241320E-01  3.053264491967E-01
  3.151304779769E-01  3.251821823290E-01  3.354819608863E-01  3.460297023881E-01
  3.513963758135E-01  3.568247480766E-01  3.623146449828E-01  3.678658532779E-01
  3.734781194129E-01  3.791511483007E-01  3.848846020680E-01  3.906780988022E-01
  3.965312112956E-01  4.024434657886E-01  4.084143407123E-01  4.144432654342E-01
  4.205296190066E-01  4.266727289208E-01  4.328718698688E-01  4.391262625139E-01
  4.454350722733E-01  4.517974081126E-01  4.582123213574E-01  4.646788045208E-01
  4.711957901520E-01  4.777621497057E-01  4.843766924367E-01  4.910381643208E-01
  4.977452470039E-01  5.044965567837E-01  5.112906436245E-01  5.181259902082E-01
  5.250010110240E-01  5.319140514997E-01  5.388633871759E-01  5.458472229278E-01
  5.528636922335E-01  5.599108564961E-01  5.669867044174E-01  5.740891514287E-01
  5.812160391807E-01  5.883651350934E-01  5.955341319705E-01  6.027206476795E-01
  6.099222249002E-01  6.171363309433E-01  6.243603576431E-01  6.315916213245E-01
  6.388273628479E-01  6.460647477336E-01  6.533008663686E-01  6.605327342965E-01
  6.677572925938E-01  6.749714083345E-01  6.821718751445E-01  6.893554138477E-01
  6.965186732069E-01  7.036582307596E-01  7.107705937524E-01  7.178522001745E-01
  7.248994198934E-01  7.319085558930E-01  7.388758456186E-01  7.457974624279E-01
  7.526695171522E-01  7.594880597683E-01  7.662490811847E-01  7.729485151427E-01
  7.795822402352E-01  7.861460820472E-01  7.926358154169E-01  7.990471668237E-01
  8.053758169035E-01  8.116174030947E-01  8.177675224188E-01  8.238217343968E-01
  8.297755641072E-01  8.356245053867E-01  8.413640241792E-01  8.469895620357E-01
  8.524965397694E-01  8.578803612704E-01  8.631364174841E-01  8.682600905576E-01
  8.732467581584E-01  8.780917979706E-01  8.827905923722E-01  8.873385332994E-01
  8.917310273009E-01  8.959635007876E-01  9.000314054813E-01  9.039302240675E-01
  9.076554760538E-01  9.112027238395E-01  9.145675789976E-01  9.177457087713E-01
  9.207328427876E-01  9.235247799870E-01  9.261173957700E-01  9.285066493580E-01
  9.306885913670E-01  9.326593715886E-01  9.344152469735E-01  9.359525898108E-01
  9.372678960917E-01  9.383577940493E-01  9.392190528598E-01  9.398485914889E-01
  9.402434876680E-01  9.404009869769E-01  9.403185120128E-01  9.399936716169E-01
  9.394242701333E-01  9.386083166659E-01  9.375440343006E-01  9.362298692552E-01
  9.346644999156E-01  9.328468457173E-01  9.307760758240E-01  9.284516175557E-01
  9.258731645155E-01  9.230406843600E-01  9.199544261594E-01  9.166149272879E-01
  9.130230197872E-01  9.091798361407E-01  9.050868144004E-01  9.007457026022E-01
  8.961585624111E-01  8.913277719357E-01  8.862560276527E-01  8.809463453861E-01
  8.754020602862E-01  8.696268257598E-01  8.636246113034E-01  8.573996991998E-01
  8.509566800420E-01  8.443004470546E-01  8.374361891910E-01  8.303693829921E-01
  8.231057831992E-01  8.156514121251E-01  8.080125477953E-01  8.001957108814E-01
  7.922076504599E-01  7.840553286395E-01  7.757459041113E-01  7.672867146886E-01
  7.586852589104E-01  7.499491767985E-01  7.410862298647E-01  7.321042804771E-01
  7.230112707029E-01  7.138152007553E-01  7.045241071793E-01  6.951460409183E-01
  6.856890454106E-01  6.761611348730E-01  6.665702729519E-01  6.569243519045E-01
  6.472311723632E-01  6.374984238279E-01  6.277336661960E-01  6.179443124161E-01
  6.081376124193E-01  5.983206384603E-01  5.885002734865E-01  5.786832074859E-01
  5.688759392831E-01  5.590847706409E-01  5.493157971118E-01  5.395749025375E-01
  5.298677532614E-01  5.201997932916E-01  5.105762402487E-01  5.010020821978E-01
  4.914820753970E-01  4.820207428754E-01  4.726223738830E-01  4.632910242022E-01
  4.540305173175E-01  4.448444511300E-01  4.357362247688E-01  4.267090756172E-01
  4.177660866007E-01  4.089101816309E-01  4.001441302783E-01  3.914705491738E-01
  3.828919040721E-01  3.744105119851E-01  3.660285434275E-01  3.577480247696E-01
  3.495708406897E-01  3.414987367191E-01  3.335333218717E-01  3.256760713554E-01
  3.179283293537E-01  3.102913118740E-01  3.027661096565E-01  2.953536911345E-01
  2.880549054439E-01  2.808704854728E-01  2.738010509467E-01  2.668471115438E-01
  2.600090700337E-01  2.532872254359E-01  2.466817761911E-01  2.401928233416E-01
  2.338203737152E-01  2.275643431081E-01  2.214245594631E-01  2.154007660369E-01
  2.094926245550E-01  2.036997183476E-01  1.980215554652E-01  1.924575717683E-01
  1.870071339896E-01  1.816695427639E-01  1.764440356240E-01  1.713297899596E-01
  1.663259259355E-01  1.614315093687E-01  1.566455545595E-01  1.519670270777E-01
  1.473948464985E-01  1.429278890901E-01  1.385649904476E-01  1.343049480752E-01
  1.301465239131E-01  1.260884468092E-01  1.221294149343E-01  1.182680981397E-01
  1.145031402573E-01  1.108331613403E-01  1.072567598460E-01  1.037725147582E-01
  1.003789876507E-01  9.707472469109E-02  9.385825858439E-02  9.072811045768E-02
  8.768279168487E-02  8.472080565242E-02  8.184064946602E-02  7.904081559877E-02
  7.631979348122E-02  7.367607103366E-02  7.110813614140E-02  6.861447807336E-02
  6.619358884474E-02  6.384396452441E-02  6.156410648758E-02  5.935252261456E-02
  5.720772843632E-02  5.512824822757E-02  5.311261604812E-02  5.115937673335E-02
  4.926708683455E-02  4.743431550997E-02  4.565964536743E-02  4.394167325924E-02
  4.227901103041E-02  4.067028622095E-02  3.911414272311E-02  3.760924139451E-02
  3.615426062805E-02  3.474789687947E-02  3.338886515356E-02  3.207589944985E-02
  3.080775316890E-02  2.958319947993E-02  2.840103165101E-02  2.726006334259E-02
  2.615912886550E-02  2.509708340442E-02  2.407280320774E-02  2.308518574507E-02
  2.213314983317E-02  2.121563573159E-02  2.033160520897E-02  1.948004158106E-02
  1.865994972169E-02  1.787035604757E-02  1.711030847811E-02  1.637887637143E-02
  1.567515043749E-02  1.499824262953E-02  1.434728601490E-02  1.372143462634E-02
  1.311986329475E-02  1.254176746457E-02  1.198636299285E-02  1.145288593288E-02
  1.094059230366E-02  1.044875784596E-02  9.976677766171E-03  9.523666468767E-03
  9.089057278420E-03  8.672202152648E-03  8.272471385911E-03  7.889253306042E-03
  7.521953963854E-03  7.169996816746E-03  6.832822407124E-03  6.509888036380E-03
  6.200667435191E-03  5.904650430837E-03  5.621342612220E-03  5.350264993238E-03
  5.090953675133E-03  4.842959508392E-03  4.605847754783E-03  4.379197750027E-03
  4.162602567632E-03  3.955668684327E-03  3.758015647569E-03  3.569275745506E-03
  3.389093679788E-03  3.217126241584E-03  3.053041991121E-03  2.896520941046E-03
  2.747254243901E-03  2.604943883923E-03  2.469302373434E-03  2.340052453987E-03
  2.216926802466E-03  2.099667742277E-03  1.988026959788E-03  1.881765226101E-03
  1.780652124277E-03  1.684465782079E-03  1.592992610288E-03  1.506027046643E-03
  1.423371305435E-03  1.344835132753E-03  1.270235567404E-03  1.199396707477E-03
  1.132149482538E-03  1.068331431423E-03  1.007786485572E-03  9.503647578771E-04
  8.959223369608E-04  8.443210868354E-04  7.954284518623E-04  7.491172669380E-04
  7.052655728235E-04  6.637564365317E-04  6.244777766831E-04  5.873221937396E-04
  5.521868050210E-04  5.189730844110E-04  4.875867066544E-04  4.579373961507E-04
  4.299387801458E-04  4.035082462255E-04  3.785668040143E-04  3.550389509836E-04
  3.328525422751E-04  3.119386644455E-04  2.922315130404E-04  2.736682739066E-04
  2.561890081538E-04  2.397365406782E-04  2.242563521621E-04  2.096964744658E-04
  1.960073893291E-04  1.831419303024E-04  1.710551878290E-04  1.597044174004E-04
  1.490489507111E-04  1.390501097380E-04  1.296711236732E-04  1.208770486392E-04
  1.126346901185E-04  1.049125280288E-04  9.768064437942E-05  9.091065344247E-05
  8.457563437626E-05  7.865006623833E-05  7.310976532682E-05  6.793182479014E-05
  6.309455644567E-05  5.857743474962E-05  5.436104286057E-05  5.042702074070E-05
  4.675801523902E-05  4.333763210227E-05  4.015038985961E-05  3.718167552819E-05
  3.441770208746E-05  3.184546767074E-05  2.945271642352E-05  2.722790097854E-05
  2.516014649858E-05  2.323921623848E-05  2.145547857888E-05  1.979987548478E-05
  1.826389234277E-05  1.683952913169E-05  1.551927288205E-05  1.429607138064E-05
  1.316330807713E-05  1.211477815072E-05  1.114466569538E-05  1.024752198327E-05
  9.418244766557E-06  8.652058579003E-06  7.944495999187E-06  7.291379838407E-06
  6.688806217000E-06  6.133128493766E-06  5.620942014067E-06  5.149069643032E-06
  4.714548051234E-06  4.314614721068E-06  3.946695642973E-06  3.608393671522E-06
  3.297477512311E-06  3.011871311459E-06  2.749644820409E-06  2.509004109622E-06
  2.288282805587E-06  2.085933826482E-06  1.900521592632E-06  1.730714688776E-06
  1.575278955975E-06  1.433070991825E-06  1.303032038427E-06  1.184182238362E-06
  1.075615239714E-06  9.764931319025E-07  8.860416948836E-07  8.035459449482E-07
  7.283459611055E-07  6.598329766980E-07  5.974457215845E-07  5.406670008743E-07
  4.890204968381E-07  4.420677812335E-07  3.994055258853E-07  3.606628999371E-07
  3.254991427542E-07  2.936013019972E-07  2.646821269072E-07  2.384781073523E-07
  2.147476496624E-07  1.932693807546E-07  1.738405724928E-07  1.562756786612E-07
  1.404049773407E-07  1.260733118767E-07  1.131389240022E-07  1.014723730457E-07