Lu    ONCVPSP-4.0.1  r_core=   2.01127   1.60232   1.90585   1.40473
71.0000     25.0000      230112    zatom,zion,pspd
8      11   3     4   600     0    pspcod,pspxc,lmax,lloc,mmax,r2well
5.99000000  4.00000000  0.00000000    rchrg fchrg qchrg
2     2     2     2     0    nproj
1     1           extension_switch
0                         6.4410232952977E+00  9.4611006018530E-01
1  0.0000000000000E+00  7.6367023815749E-11 -2.1444446132030E-10
2  1.0000000000000E-02  4.7118246802568E-02 -5.7409390153178E-04
3  2.0000000000000E-02  9.4195201736528E-02 -1.1773012162417E-03
4  3.0000000000000E-02  1.4118945436467E-01 -1.8382206709310E-03
5  4.0000000000000E-02  1.8805935906454E-01 -2.5844271786506E-03
6  5.0000000000000E-02  2.3476292229617E-01 -3.4419737745126E-03
7  6.0000000000000E-02  2.8125769564777E-01 -4.4349100096890E-03
8  7.0000000000000E-02  3.2750067649509E-01 -5.5848220360975E-03
9  8.0000000000000E-02  3.7344821803383E-01 -6.9103993998318E-03
10  9.0000000000000E-02  4.1905595035015E-01 -8.4270332970833E-03
11  1.0000000000000E-01  4.6427871408333E-01 -1.0146450734328E-02
12  1.1000000000000E-01  5.0907050810721E-01 -1.2076388677952E-02
13  1.2000000000000E-01  5.5338445251496E-01 -1.4220311880296E-02
14  1.3000000000000E-01  5.9717276803586E-01 -1.6577177633253E-02
15  1.4000000000000E-01  6.4038677284487E-01 -1.9141250230525E-02
16  1.5000000000000E-01  6.8297689754654E-01 -2.1901967420583E-02
17  1.6000000000000E-01  7.2489271892731E-01 -2.4843860607928E-02
18  1.7000000000000E-01  7.6608301287405E-01 -2.7946530016200E-02
19  1.8000000000000E-01  8.0649582665621E-01 -3.1184675467535E-02
20  1.9000000000000E-01  8.4607857056323E-01 -3.4528182863847E-02
21  2.0000000000000E-01  8.8477812868216E-01 -3.7942265882951E-02
22  2.1000000000000E-01  9.2254098839325E-01 -4.1387661830718E-02
23  2.2000000000000E-01  9.5931338795587E-01 -4.4820880025998E-02
24  2.3000000000000E-01  9.9504148135579E-01 -4.8194500542554E-02
25  2.4000000000000E-01  1.0296715193893E+00 -5.1457520598086E-02
26  2.5000000000000E-01  1.0631500457714E+00 -5.4555745369268E-02
27  2.6000000000000E-01  1.0954241068769E+00 -5.7432219529064E-02
28  2.7000000000000E-01  1.1264414735561E+00 -6.0027695353653E-02
29  2.8000000000000E-01  1.1561508733120E+00 -6.2281132835461E-02
30  2.9000000000000E-01  1.1845022309873E+00 -6.4130226870657E-02
31  3.0000000000000E-01  1.2114469159852E+00 -6.5511956268455E-02
32  3.1000000000000E-01  1.2369379939413E+00 -6.6363149058723E-02
33  3.2000000000000E-01  1.2609304806784E+00 -6.6621058357877E-02
34  3.3000000000000E-01  1.2833815962060E+00 -6.6223942892835E-02
35  3.4000000000000E-01  1.3042510164819E+00 -6.5111646181679E-02
36  3.5000000000000E-01  1.3235011206249E+00 -6.3226168329555E-02
37  3.6000000000000E-01  1.3410972312658E+00 -6.0512224419904E-02
38  3.7000000000000E-01  1.3570078457428E+00 -5.6917783565375E-02
39  3.8000000000000E-01  1.3712048558861E+00 -5.2394582829768E-02
40  3.9000000000000E-01  1.3836637542028E+00 -4.6898610441231E-02
41  4.0000000000000E-01  1.3943638243552E+00 -4.0390552986561E-02
42  4.1000000000000E-01  1.4032883139366E+00 -3.2836201605413E-02
43  4.2000000000000E-01  1.4104245876712E+00 -2.4206812587765E-02
44  4.3000000000000E-01  1.4157642593177E+00 -1.4479418217164E-02
45  4.4000000000000E-01  1.4193033007189E+00 -3.6370841897928E-03
46  4.5000000000000E-01  1.4210421266241E+00  8.3308895264969E-03
47  4.6000000000000E-01  1.4209856541133E+00  2.1428826955117E-02
48  4.7000000000000E-01  1.4191433356620E+00  3.5654595447718E-02
49  4.8000000000000E-01  1.4155291651170E+00  5.0999587408321E-02
50  4.9000000000000E-01  1.4101616560857E+00  6.7448765054771E-02
51  5.0000000000000E-01  1.4030637924907E+00  8.4980768188650E-02
52  5.1000000000000E-01  1.3942629512897E+00  1.0356808425462E-01
53  5.2000000000000E-01  1.3837907976171E+00  1.2317727927823E-01
54  5.3000000000000E-01  1.3716831528604E+00  1.4376928758265E-01
55  5.4000000000000E-01  1.3579798364379E+00  1.6529975750814E-01
56  5.5000000000000E-01  1.3427244822968E+00  1.8771944970081E-01
57  5.6000000000000E-01  1.3259643313950E+00  2.1097468390543E-01
58  5.7000000000000E-01  1.3077500016670E+00  2.3500782960010E-01
59  5.8000000000000E-01  1.2881352371997E+00  2.5975783525248E-01
60  5.9000000000000E-01  1.2671766385534E+00  2.8516079046818E-01
61  6.0000000000000E-01  1.2449333763639E+00  3.1115051484535E-01
62  6.1000000000000E-01  1.2214668905343E+00  3.3765916695256E-01
63  6.2000000000000E-01  1.1968405774876E+00  3.6461786651567E-01
64  6.3000000000000E-01  1.1711194680864E+00  3.9195732263726E-01
65  6.4000000000000E-01  1.1443698989373E+00  4.1960846068425E-01
66  6.5000000000000E-01  1.1166591798905E+00  4.4750304036928E-01
67  6.6000000000000E-01  1.0880552606021E+00  4.7557425752101E-01
68  6.7000000000000E-01  1.0586263990668E+00  5.0375732209136E-01
69  6.8000000000000E-01  1.0284408350343E+00  5.3199000508325E-01
70  6.9000000000000E-01  9.9756647120220E-01  5.6021314730218E-01
71  7.0000000000000E-01  9.6607056503082E-01  5.8837112313855E-01
72  7.1000000000000E-01  9.3401943394804E-01  6.1641225297191E-01
73  7.2000000000000E-01  9.0147817660746E-01  6.4428915825393E-01
74  7.3000000000000E-01  8.6851041273135E-01  6.7195905386755E-01
75  7.4000000000000E-01  8.3517804391204E-01  6.9938397297425E-01
76  7.5000000000000E-01  8.0154103756113E-01  7.2653092024300E-01
77  7.6000000000000E-01  7.6765723598937E-01  7.5337195009902E-01
78  7.7000000000000E-01  7.3358219236980E-01  7.7988416743116E-01
79  7.8000000000000E-01  6.9936903508723E-01  8.0604964904642E-01
80  7.9000000000000E-01  6.6506836170813E-01  8.3185528505289E-01
81  8.0000000000000E-01  6.3072816352093E-01  8.5729254027805E-01
82  8.1000000000000E-01  5.9639378129715E-01  8.8235713678204E-01
83  8.2000000000000E-01  5.6210789261431E-01  9.0704865949434E-01
84  8.3000000000000E-01  5.2791053076173E-01  9.3137008798071E-01
85  8.4000000000000E-01  4.9383913492457E-01  9.5532725832339E-01
86  8.5000000000000E-01  4.5992863101227E-01  9.7892826006529E-01
87  8.6000000000000E-01  4.2621154216619E-01  1.0021827741168E+00
88  8.7000000000000E-01  3.9271812765212E-01  1.0251013584443E+00
89  8.8000000000000E-01  3.5947654851802E-01  1.0476946892422E+00
90  8.9000000000000E-01  3.2651305807847E-01  1.0699727661293E+00
91  9.0000000000000E-01  2.9385221497738E-01  1.0919440906937E+00
92  9.1000000000000E-01  2.6151711628266E-01  1.1136148284327E+00
93  9.2000000000000E-01  2.2952964778158E-01  1.1349879647877E+00
94  9.3000000000000E-01  1.9791074837751E-01  1.1560624665507E+00
95  9.4000000000000E-01  1.6668068523827E-01  1.1768324604102E+00
96  9.5000000000000E-01  1.3585933611622E-01  1.1972864408096E+00
97  9.6000000000000E-01  1.0546647505273E-01  1.2174065195947E+00
98  9.7000000000000E-01  7.5522057496082E-02  1.2371677301354E+00
99  9.8000000000000E-01  4.6046500704313E-02  1.2565373987002E+00
100  9.9000000000000E-01  1.7060955175698E-02  1.2754745958477E+00
101  1.0000000000000E+00 -1.1412437249964E-02  1.2939296804661E+00
102  1.0100000000000E+00 -3.9350303042808E-02  1.3118439488297E+00
103  1.0200000000000E+00 -6.6727818843436E-02  1.3291494006587E+00
104  1.0300000000000E+00 -9.3518519984799E-02  1.3457686336382E+00
105  1.0400000000000E+00 -1.1969414008443E-01  1.3616148771942E+00
106  1.0500000000000E+00 -1.4522448603075E-01  1.3765921755023E+00
107  1.0600000000000E+00 -1.7007735255637E-01  1.3905957287388E+00
108  1.0700000000000E+00 -1.9421848041227E-01  1.4035124004406E+00
109  1.0800000000000E+00 -2.1761156192399E-01  1.4152213975300E+00
110  1.0900000000000E+00 -2.4021829742209E-01  1.4255951280564E+00
111  1.1000000000000E+00 -2.6199850568648E-01  1.4345002400033E+00
112  1.1100000000000E+00 -2.8291029112551E-01  1.4417988425951E+00
113  1.1200000000000E+00 -3.0291026991533E-01  1.4473499093849E+00
114  1.1300000000000E+00 -3.2195385675124E-01  1.4510108600088E+00
115  1.1400000000000E+00 -3.3999561319723E-01  1.4526393148212E+00
116  1.1500000000000E+00 -3.5698965786033E-01  1.4520950136682E+00
117  1.1600000000000E+00 -3.7289013774636E-01  1.4492418867698E+00
118  1.1700000000000E+00 -3.8765175917309E-01  1.4439502620743E+00
119  1.1800000000000E+00 -4.0123037550075E-01  1.4360991894327E+00
120  1.1900000000000E+00 -4.1358362769710E-01  1.4255788575660E+00
121  1.2000000000000E+00 -4.2467163234622E-01  1.4122930749356E+00
122  1.2100000000000E+00 -4.3445771015356E-01  1.3961617803386E+00
123  1.2200000000000E+00 -4.4290914625412E-01  1.3771235432119E+00
124  1.2300000000000E+00 -4.4999797169689E-01  1.3551380072526E+00
125  1.2400000000000E+00 -4.5570175334627E-01  1.3301882240142E+00
126  1.2500000000000E+00 -4.6000437706817E-01  1.3022828154946E+00
127  1.2600000000000E+00 -4.6289680647730E-01  1.2714578964695E+00
128  1.2700000000000E+00 -4.6437779666521E-01  1.2377786782954E+00
129  1.2800000000000E+00 -4.6445453919345E-01  1.2013406660762E+00
130  1.2900000000000E+00 -4.6314321122722E-01  1.1622703504791E+00
131  1.3000000000000E+00 -4.6046939795648E-01  1.1207252839504E+00
132  1.3100000000000E+00 -4.5646835339169E-01  1.0768934186013E+00
133  1.3200000000000E+00 -4.5118506022484E-01  1.0309915695764E+00
134  1.3300000000000E+00 -4.4467404469361E-01  9.8326285324091E-01
135  1.3400000000000E+00 -4.3699889721350E-01  9.3397293382157E-01
136  1.3500000000000E+00 -4.2823144399846E-01  8.8340489536846E-01
137  1.3600000000000E+00 -4.1845050890557E-01  8.3185253785302E-01
138  1.3700000000000E+00 -4.0774019830472E-01  7.7961187685861E-01
139  1.3800000000000E+00 -3.9618763477337E-01  7.2697060512361E-01
140  1.3900000000000E+00 -3.8388005441504E-01  6.7419523398004E-01
141  1.4000000000000E+00 -3.7090123007474E-01  6.2151589212592E-01
142  1.4100000000000E+00 -3.5732690866909E-01  5.6910736581635E-01
143  1.4200000000000E+00 -3.4322399169078E-01  5.1709091846405E-01
144  1.4300000000000E+00 -3.2865771104014E-01  4.6557606899133E-01
145  1.4400000000000E+00 -3.1369467704085E-01  4.1467774493802E-01
146  1.4500000000000E+00 -2.9840246980579E-01  3.6451481463783E-01
147  1.4600000000000E+00 -2.8284936451025E-01  3.1520938360970E-01
148  1.4700000000000E+00 -2.6710400343069E-01  2.6688583951753E-01
149  1.4800000000000E+00 -2.5123505563869E-01  2.1966986246813E-01
150  1.4900000000000E+00 -2.3531086542995E-01  1.7368739900079E-01
151  1.5000000000000E+00 -2.1939909235670E-01  1.2906360827267E-01
152  1.5100000000000E+00 -2.0356634543845E-01  8.5921787317827E-02
153  1.5200000000000E+00 -1.8787781540994E-01  4.4382288253113E-02
154  1.5300000000000E+00 -1.7239690797821E-01  4.5614359155706E-03
155  1.5400000000000E+00 -1.5718488155115E-01 -3.3429543307513E-02
156  1.5500000000000E+00 -1.4230049278274E-01 -6.9485571263975E-02
157  1.5600000000000E+00 -1.2779965330993E-01 -1.0350873607304E-01
158  1.5700000000000E+00 -1.1373510096549E-01 -1.3540926837223E-01
159  1.5800000000000E+00 -1.0015608868794E-01 -1.6510646588657E-01
160  1.5900000000000E+00 -8.7108094233548E-02 -1.9252955678111E-01
161  1.6000000000000E+00 -7.4632553619430E-02 -2.1761849281961E-01
162  1.6100000000000E+00 -6.2766621075859E-02 -2.4032466377143E-01
163  1.6200000000000E+00 -5.1542958051492E-02 -2.6061152524953E-01
164  1.6300000000000E+00 -4.0989553594210E-02 -2.7845513281499E-01
165  1.6400000000000E+00 -3.1129578146655E-02 -2.9384457606833E-01
166  1.6500000000000E+00 -2.1981272533162E-02 -3.0678230722256E-01
167  1.6600000000000E+00 -1.3557873594333E-02 -3.1728435964510E-01
168  1.6700000000000E+00 -5.8675775953640E-03 -3.2538045286830E-01
169  1.6800000000000E+00  1.0864577836320E-03 -3.3111398151904E-01
170  1.6900000000000E+00  7.3060724261518E-03 -3.3454188672453E-01
171  1.7000000000000E+00  1.2798023628378E-02 -3.3573440961968E-01
172  1.7100000000000E+00  1.7573867325440E-02 -3.3477472861533E-01
173  1.7200000000000E+00  2.1649800078729E-02 -3.3175847750380E-01
174  1.7300000000000E+00  2.5046465985081E-02 -3.2679315951054E-01
175  1.7400000000000E+00  2.7788725183483E-02 -3.1999744343688E-01
176  1.7500000000000E+00  2.9905389669027E-02 -3.1150036239305E-01
177  1.7600000000000E+00  3.1428926589499E-02 -3.0144041416406E-01
178  1.7700000000000E+00  3.2395131488261E-02 -2.8996457077049E-01
179  1.7800000000000E+00  3.2842774386675E-02 -2.7722720620913E-01
180  1.7900000000000E+00  3.2813221437450E-02 -2.6338895052965E-01
181  1.8000000000000E+00  3.2350035320528E-02 -2.4861547989896E-01
182  1.8100000000000E+00  3.1498557708765E-02 -2.3307625273724E-01
183  1.8200000000000E+00  3.0305477335207E-02 -2.1694320264769E-01
184  1.8300000000000E+00  2.8818387346065E-02 -2.0038939932810E-01
185  1.8400000000000E+00  2.7085335737900E-02 -1.8358768899865E-01
186  1.8500000000000E+00  2.5154372774076E-02 -1.6670932618431E-01
187  1.8600000000000E+00  2.3073099306082E-02 -1.4992260877407E-01
188  1.8700000000000E+00  2.0888219953445E-02 -1.3339152837667E-01
189  1.8800000000000E+00  1.8645106349083E-02 -1.1727445160312E-01
190  1.8900000000000E+00  1.6387360044120E-02 -1.0172280311990E-01
191  1.9000000000000E+00  1.4156443713410E-02 -8.6879945908962E-02
192  1.9100000000000E+00  1.1991197679325E-02 -7.2879749428769E-02
193  1.9200000000000E+00  9.9264018425634E-03 -5.9842357200741E-02
194  1.9300000000000E+00  7.9935690073338E-03 -4.7876389028230E-02
195  1.9400000000000E+00  6.2228658486024E-03 -3.7084501616795E-02
196  1.9500000000000E+00  4.6403318686820E-03 -2.7555437886346E-02
197  1.9600000000000E+00  3.2678032561997E-03 -1.9363753709134E-02
198  1.9700000000000E+00  2.1226860858877E-03 -1.2569132490635E-02
199  1.9800000000000E+00  1.2181612301215E-03 -7.2180739758391E-03
200  1.9900000000000E+00  5.5990915669428E-04 -3.3245158113300E-03
201  2.0000000000000E+00  1.5755828676516E-04 -9.3885277917823E-04
202  2.0100000000000E+00  6.3477705311824E-06 -3.8023969521563E-05
203  2.0200000000000E+00 -5.0760047645902E-06  3.0432669590247E-05
204  2.0300000000000E+00  2.5162886387208E-06 -1.5032976519698E-05
205  2.04 -0.  0.
206  2.05 -0. -0.
207  2.06  0.  0.
208  2.07  0.  0.
209  2.08  0.  0.
210  2.09  0.  0.
211  2.10  0.  0.
212  2.11  0.  0.
213  2.12  0.  0.
214  2.13  0.  0.
215  2.14  0.  0.
216  2.15  0.  0.
217  2.16  0.  0.
218  2.17  0.  0.
219  2.18  0.  0.
220  2.19  0.  0.
221  2.20  0.  0.
222  2.21  0.  0.
223  2.22  0.  0.
224  2.23  0.  0.
225  2.24  0.  0.
226  2.25  0.  0.
227  2.26  0.  0.
228  2.27  0.  0.
229  2.28  0.  0.
230  2.29  0.  0.
231  2.30  0.  0.
232  2.31  0.  0.
233  2.32  0.  0.
234  2.33  0.  0.
235  2.34  0.  0.
236  2.35  0.  0.
237  2.36  0.  0.
238  2.37  0.  0.
239  2.38  0.  0.
240  2.39  0.  0.
241  2.40  0.  0.
242  2.41  0.  0.
243  2.42  0.  0.
244  2.43  0.  0.
245  2.44  0.  0.
246  2.45  0.  0.
247  2.46  0.  0.
248  2.47  0.  0.
249  2.48  0.  0.
250  2.49  0.  0.
251  2.50  0.  0.
252  2.51  0.  0.
253  2.52  0.  0.
254  2.53  0.  0.
255  2.54  0.  0.
256  2.55  0.  0.
257  2.56  0.  0.
258  2.57  0.  0.
259  2.58  0.  0.
260  2.59  0.  0.
261  2.60  0.  0.
262  2.61  0.  0.
263  2.62  0.  0.
264  2.63  0.  0.
265  2.64  0.  0.
266  2.65  0.  0.
267  2.66  0.  0.
268  2.67  0.  0.
269  2.68  0.  0.
270  2.69  0.  0.
271  2.70  0.  0.
272  2.71  0.  0.
273  2.72  0.  0.
274  2.73  0.  0.
275  2.74  0.  0.
276  2.75  0.  0.
277  2.76  0.  0.
278  2.77  0.  0.
279  2.78  0.  0.
280  2.79  0.  0.
281  2.80  0.  0.
282  2.81  0.  0.
283  2.82  0.  0.
284  2.83  0.  0.
285  2.84  0.  0.
286  2.85  0.  0.
287  2.86  0.  0.
288  2.87  0.  0.
289  2.88  0.  0.
290  2.89  0.  0.
291  2.90  0.  0.
292  2.91  0.  0.
293  2.92  0.  0.
294  2.93  0.  0.
295  2.94  0.  0.
296  2.95  0.  0.
297  2.96  0.  0.
298  2.97  0.  0.
299  2.98  0.  0.
300  2.99  0.  0.
301  3.00  0.  0.
302  3.01  0.  0.
303  3.02  0.  0.
304  3.03  0.  0.
305  3.04  0.  0.
306  3.05  0.  0.
307  3.06  0.  0.
308  3.07  0.  0.
309  3.08  0.  0.
310  3.09  0.  0.
311  3.10  0.  0.
312  3.11  0.  0.
313  3.12  0.  0.
314  3.13  0.  0.
315  3.14  0.  0.
316  3.15  0.  0.
317  3.16  0.  0.
318  3.17  0.  0.
319  3.18  0.  0.
320  3.19  0.  0.
321  3.20  0.  0.
322  3.21  0.  0.
323  3.22  0.  0.
324  3.23  0.  0.
325  3.24  0.  0.
326  3.25  0.  0.
327  3.26  0.  0.
328  3.27  0.  0.
329  3.28  0.  0.
330  3.29  0.  0.
331  3.30  0.  0.
332  3.31  0.  0.
333  3.32  0.  0.
334  3.33  0.  0.
335  3.34  0.  0.
336  3.35  0.  0.
337  3.36  0.  0.
338  3.37  0.  0.
339  3.38  0.  0.
340  3.39  0.  0.
341  3.40  0.  0.
342  3.41  0.  0.
343  3.42  0.  0.
344  3.43  0.  0.
345  3.44  0.  0.
346  3.45  0.  0.
347  3.46  0.  0.
348  3.47  0.  0.
349  3.48  0.  0.
350  3.49  0.  0.
351  3.50  0.  0.
352  3.51  0.  0.
353  3.52  0.  0.
354  3.53  0.  0.
355  3.54  0.  0.
356  3.55  0.  0.
357  3.56  0.  0.
358  3.57  0.  0.
359  3.58  0.  0.
360  3.59  0.  0.
361  3.60  0.  0.
362  3.61  0.  0.
363  3.62  0.  0.
364  3.63  0.  0.
365  3.64  0.  0.
366  3.65  0.  0.
367  3.66  0.  0.
368  3.67  0.  0.
369  3.68  0.  0.
370  3.69  0.  0.
371  3.70  0.  0.
372  3.71  0.  0.
373  3.72  0.  0.
374  3.73  0.  0.
375  3.74  0.  0.
376  3.75  0.  0.
377  3.76  0.  0.
378  3.77  0.  0.
379  3.78  0.  0.
380  3.79  0.  0.
381  3.80  0.  0.
382  3.81  0.  0.
383  3.82  0.  0.
384  3.83  0.  0.
385  3.84  0.  0.
386  3.85  0.  0.
387  3.86  0.  0.
388  3.87  0.  0.
389  3.88  0.  0.
390  3.89  0.  0.
391  3.90  0.  0.
392  3.91  0.  0.
393  3.92  0.  0.
394  3.93  0.  0.
395  3.94  0.  0.
396  3.95  0.  0.
397  3.96  0.  0.
398  3.97  0.  0.
399  3.98  0.  0.
400  3.99  0.  0.
401  4.00  0.  0.
402  4.01  0.  0.
403  4.02  0.  0.
404  4.03  0.  0.
405  4.04  0.  0.
406  4.05  0.  0.
407  4.06  0.  0.
408  4.07  0.  0.
409  4.08  0.  0.
410  4.09  0.  0.
411  4.10  0.  0.
412  4.11  0.  0.
413  4.12  0.  0.
414  4.13  0.  0.
415  4.14  0.  0.
416  4.15  0.  0.
417  4.16  0.  0.
418  4.17  0.  0.
419  4.18  0.  0.
420  4.19  0.  0.
421  4.20  0.  0.
422  4.21  0.  0.
423  4.22  0.  0.
424  4.23  0.  0.
425  4.24  0.  0.
426  4.25  0.  0.
427  4.26  0.  0.
428  4.27  0.  0.
429  4.28  0.  0.
430  4.29  0.  0.
431  4.30  0.  0.
432  4.31  0.  0.
433  4.32  0.  0.
434  4.33  0.  0.
435  4.34  0.  0.
436  4.35  0.  0.
437  4.36  0.  0.
438  4.37  0.  0.
439  4.38  0.  0.
440  4.39  0.  0.
441  4.40  0.  0.
442  4.41  0.  0.
443  4.42  0.  0.
444  4.43  0.  0.
445  4.44  0.  0.
446  4.45  0.  0.
447  4.46  0.  0.
448  4.47  0.  0.
449  4.48  0.  0.
450  4.49  0.  0.
451  4.50  0.  0.
452  4.51  0.  0.
453  4.52  0.  0.
454  4.53  0.  0.
455  4.54  0.  0.
456  4.55  0.  0.
457  4.56  0.  0.
458  4.57  0.  0.
459  4.58  0.  0.
460  4.59  0.  0.
461  4.60  0.  0.
462  4.61  0.  0.
463  4.62  0.  0.
464  4.63  0.  0.
465  4.64  0.  0.
466  4.65  0.  0.
467  4.66  0.  0.
468  4.67  0.  0.
469  4.68  0.  0.
470  4.69  0.  0.
471  4.70  0.  0.
472  4.71  0.  0.
473  4.72  0.  0.
474  4.73  0.  0.
475  4.74  0.  0.
476  4.75  0.  0.
477  4.76  0.  0.
478  4.77  0.  0.
479  4.78  0.  0.
480  4.79  0.  0.
481  4.80  0.  0.
482  4.81  0.  0.
483  4.82  0.  0.
484  4.83  0.  0.
485  4.84  0.  0.
486  4.85  0.  0.
487  4.86  0.  0.
488  4.87  0.  0.
489  4.88  0.  0.
490  4.89  0.  0.
491  4.90  0.  0.
492  4.91  0.  0.
493  4.92  0.  0.
494  4.93  0.  0.
495  4.94  0.  0.
496  4.95  0.  0.
497  4.96  0.  0.
498  4.97  0.  0.
499  4.98  0.  0.
500  4.99  0.  0.
501  5.00  0.  0.
502  5.01  0.  0.
503  5.02  0.  0.
504  5.03  0.  0.
505  5.04  0.  0.
506  5.05  0.  0.
507  5.06  0.  0.
508  5.07  0.  0.
509  5.08  0.  0.
510  5.09  0.  0.
511  5.10  0.  0.
512  5.11  0.  0.
513  5.12  0.  0.
514  5.13  0.  0.
515  5.14  0.  0.
516  5.15  0.  0.
517  5.16  0.  0.
518  5.17  0.  0.
519  5.18  0.  0.
520  5.19  0.  0.
521  5.20  0.  0.
522  5.21  0.  0.
523  5.22  0.  0.
524  5.23  0.  0.
525  5.24  0.  0.
526  5.25  0.  0.
527  5.26  0.  0.
528  5.27  0.  0.
529  5.28  0.  0.
530  5.29  0.  0.
531  5.30  0.  0.
532  5.31  0.  0.
533  5.32  0.  0.
534  5.33  0.  0.
535  5.34  0.  0.
536  5.35  0.  0.
537  5.36  0.  0.
538  5.37  0.  0.
539  5.38  0.  0.
540  5.39  0.  0.
541  5.40  0.  0.
542  5.41  0.  0.
543  5.42  0.  0.
544  5.43  0.  0.
545  5.44  0.  0.
546  5.45  0.  0.
547  5.46  0.  0.
548  5.47  0.  0.
549  5.48  0.  0.
550  5.49  0.  0.
551  5.50  0.  0.
552  5.51  0.  0.
553  5.52  0.  0.
554  5.53  0.  0.
555  5.54  0.  0.
556  5.55  0.  0.
557  5.56  0.  0.
558  5.57  0.  0.
559  5.58  0.  0.
560  5.59  0.  0.
561  5.60  0.  0.
562  5.61  0.  0.
563  5.62  0.  0.
564  5.63  0.  0.
565  5.64  0.  0.
566  5.65  0.  0.
567  5.66  0.  0.
568  5.67  0.  0.
569  5.68  0.  0.
570  5.69  0.  0.
571  5.70  0.  0.
572  5.71  0.  0.
573  5.72  0.  0.
574  5.73  0.  0.
575  5.74  0.  0.
576  5.75  0.  0.
577  5.76  0.  0.
578  5.77  0.  0.
579  5.78  0.  0.
580  5.79  0.  0.
581  5.80  0.  0.
582  5.81  0.  0.
583  5.82  0.  0.
584  5.83  0.  0.
585  5.84  0.  0.
586  5.85  0.  0.
587  5.86  0.  0.
588  5.87  0.  0.
589  5.88  0.  0.
590  5.89  0.  0.
591  5.90  0.  0.
592  5.91  0.  0.
593  5.92  0.  0.
594  5.93  0.  0.
595  5.94  0.  0.
596  5.95  0.  0.
597  5.96  0.  0.
598  5.97  0.  0.
599  5.98  0.  0.
600  5.99  0.  0.
1                         6.1237449423576E+00  5.5845034752589E-01
1  0.0000000000000E+00 -8.4797330268671E-10  1.7682628417059E-09
2  1.0000000000000E-02  1.2400225058711E-03 -7.2561341864410E-04
3  2.0000000000000E-02  4.9566234582889E-03 -2.8972017671380E-03
4  3.0000000000000E-02  1.1139395324147E-02 -6.4990093711994E-03
5  4.0000000000000E-02  1.9770966617058E-02 -1.1504778114128E-02
6  5.0000000000000E-02  3.0826965332630E-02 -1.7877753541014E-02
7  6.0000000000000E-02  4.4275971374497E-02 -2.5570701454988E-02
8  7.0000000000000E-02  6.0079461478102E-02 -3.4525942740347E-02
9  8.0000000000000E-02  7.8191750987160E-02 -4.4675415915673E-02
10  9.0000000000000E-02  9.8559937574779E-02 -5.5940778371222E-02
11  1.0000000000000E-01  1.2112385260783E-01 -6.8233558326318E-02
12  1.1000000000000E-01  1.4581602631220E-01 -8.1455370206864E-02
13  1.2000000000000E-01  1.7256167319503E-01 -9.5498206359160E-02
14  1.3000000000000E-01  2.0127870430759E-01 -1.1024481775691E-01
15  1.4000000000000E-01  2.3187777288250E-01 -1.2556919561563E-01
16  1.5000000000000E-01  2.6426235965032E-01 -1.4133716460161E-01
17  1.6000000000000E-01  2.9832890373362E-01 -1.5740709662633E-01
18  1.7000000000000E-01  3.3396698443822E-01 -1.7363075207740E-01
19  1.8000000000000E-01  3.7105955852026E-01 -1.8985425279264E-01
20  1.9000000000000E-01  4.0948325661880E-01 -2.0591918818477E-01
21  2.0000000000000E-01  4.4910874152190E-01 -2.2166385273078E-01
22  2.1000000000000E-01  4.8980112980206E-01 -2.3692460962256E-01
23  2.2000000000000E-01  5.3142047713544E-01 -2.5153737181109E-01
24  2.3000000000000E-01  5.7382232633530E-01 -2.6533918805035E-01
25  2.4000000000000E-01  6.1685831581023E-01 -2.7816991794733E-01
26  2.5000000000000E-01  6.6037684483027E-01 -2.8987397654189E-01
27  2.6000000000000E-01  7.0422379067899E-01 -3.0030212566824E-01
28  2.7000000000000E-01  7.4824327151534E-01 -3.0931328637652E-01
29  2.8000000000000E-01  7.9227844759567E-01 -3.1677634410792E-01
30  2.9000000000000E-01  8.3617235243988E-01 -3.2257191619831E-01
31  3.0000000000000E-01  8.7976874459400E-01 -3.2659404971005E-01
32  3.1000000000000E-01  9.2291296986667E-01 -3.2875181662050E-01
33  3.2000000000000E-01  9.6545282332065E-01 -3.2897077308482E-01
34  3.3000000000000E-01  1.0072393999003E+00 -3.2719424987753E-01
35  3.4000000000000E-01  1.0481279223849E+00 -3.2338444223009E-01
36  3.5000000000000E-01  1.0879785353856E+00 -3.1752326913082E-01
37  3.6000000000000E-01  1.1266570543570E+00 -3.0961297473474E-01
38  3.7000000000000E-01  1.1640356590719E+00 -2.9967644782398E-01
39  3.8000000000000E-01  1.1999935217057E+00 -2.8775723922728E-01
40  3.9000000000000E-01  1.2344173605877E+00 -2.7391926169762E-01
41  4.0000000000000E-01  1.2672019117879E+00 -2.5824616189180E-01
42  4.1000000000000E-01  1.2982503119949E+00 -2.4084035971316E-01
43  4.2000000000000E-01  1.3274743875943E+00 -2.2182175627225E-01
44  4.3000000000000E-01  1.3547948464358E+00 -2.0132611798449E-01
45  4.4000000000000E-01  1.3801413704676E+00 -1.7950315074081E-01
46  4.5000000000000E-01  1.4034526091734E+00 -1.5651428453334E-01
47  4.6000000000000E-01  1.4246760755469E+00 -1.3253019526444E-01
48  4.7000000000000E-01  1.4437679481371E+00 -1.0772809658009E-01
49  4.8000000000000E-01  1.4606927844651E+00 -8.2288840317845E-02
50  4.9000000000000E-01  1.4754231528063E+00 -5.6393869413140E-02
51  5.0000000000000E-01  1.4879391909229E+00 -3.0222071742760E-02
52  5.1000000000000E-01  1.4982281017763E+00 -3.9465872852388E-03
53  5.2000000000000E-01  1.5062835975225E+00  2.2268375963561E-02
54  5.3000000000000E-01  1.5121053041628E+00  4.8270659754381E-02
55  5.4000000000000E-01  1.5156981400601E+00  7.3923148346669E-02
56  5.5000000000000E-01  1.5170716821179E+00  9.9106577540766E-02
57  5.6000000000000E-01  1.5162395337334E+00  1.2372210231529E-01
58  5.7000000000000E-01  1.5132187086737E+00  1.4769356759693E-01
59  5.8000000000000E-01  1.5080290447637E+00  1.7096943001009E-01
60  5.9000000000000E-01  1.5006926607317E+00  1.9352428287580E-01
61  6.0000000000000E-01  1.4912334687258E+00  2.1535994220810E-01
62  6.1000000000000E-01  1.4796767539044E+00  2.3650605792098E-01
63  6.2000000000000E-01  1.4660488311437E+00  2.5702022181967E-01
64  6.3000000000000E-01  1.4503767872952E+00  2.7698755209575E-01
65  6.4000000000000E-01  1.4326883156217E+00  2.9651974284574E-01
66  6.5000000000000E-01  1.4130116470475E+00  3.1575357644078E-01
67  6.6000000000000E-01  1.3913755807329E+00  3.3484890622978E-01
68  6.7000000000000E-01  1.3678096142547E+00  3.5398612688853E-01
69  6.8000000000000E-01  1.3423441713926E+00  3.7336315954818E-01
70  6.9000000000000E-01  1.3150109232273E+00  3.9319198846697E-01
71  7.0000000000000E-01  1.2858431959987E+00  4.1369479525715E-01
72  7.1000000000000E-01  1.2548764570015E+00  4.3509974536064E-01
73  7.2000000000000E-01  1.2221488677498E+00  4.5763648940343E-01
74  7.3000000000000E-01  1.1877018917788E+00  4.8153144907764E-01
75  7.4000000000000E-01  1.1515809427962E+00  5.0700296314630E-01
76  7.5000000000000E-01  1.1138360575077E+00  5.3425637389772E-01
77  7.6000000000000E-01  1.0745225763347E+00  5.6347913777512E-01
78  7.7000000000000E-01  1.0337018144605E+00  5.9483604587247E-01
79  7.8000000000000E-01  9.9144170520437E-01  6.2846464045037E-01
80  7.9000000000000E-01  9.4781739764188E-01  6.6447091253858E-01
81  8.0000000000000E-01  9.0291179068365E-01  7.0292536304025E-01
82  8.1000000000000E-01  8.5681598649046E-01  7.4385950554974E-01
83  8.2000000000000E-01  8.0962964713395E-01  7.8726288338771E-01
84  8.3000000000000E-01  7.6146123980148E-01  8.3308066621572E-01
85  8.4000000000000E-01  7.1242815756607E-01  8.8121188312524E-01
86  8.5000000000000E-01  6.6265670477178E-01  9.3150833943283E-01
87  8.6000000000000E-01  6.1228193838728E-01  9.8377425371518E-01
88  8.7000000000000E-01  5.6144735921336E-01  1.0377666400632E+00
89  8.8000000000000E-01  5.1030444954834E-01  1.0931964483306E+00
90  8.9000000000000E-01  4.5901205676612E-01  1.1497304625148E+00
91  9.0000000000000E-01  4.0773562519096E-01  1.2069939445695E+00
92  9.1000000000000E-01  3.5664628160121E-01  1.2645739981517E+00
93  9.2000000000000E-01  3.0591978260266E-01  1.3220236142910E+00
94  9.3000000000000E-01  2.5573533492048E-01  1.3788663489817E+00
95  9.4000000000000E-01  2.0627430230583E-01  1.4346015714773E+00
96  9.5000000000000E-01  1.5771881518508E-01  1.4887102118270E+00
97  9.6000000000000E-01  1.1025030133752E-01  1.5406609271649E+00
98  9.7000000000000E-01  6.4047957726543E-02  1.5899165986093E+00
99  9.8000000000000E-01  1.9287185081985E-02  1.6359410645352E+00
100  9.9000000000000E-01 -2.3861992097722E-02  1.6782059915759E+00
101  1.0000000000000E+00 -6.5236496816004E-02  1.7161977820907E+00
102  1.0100000000000E+00 -1.0468173862730E-01  1.7494244160733E+00
103  1.0200000000000E+00 -1.4205309724993E-01  1.7774221266109E+00
104  1.0300000000000E+00 -1.7721732827377E-01  1.7997618110043E+00
105  1.0400000000000E+00 -2.1005386969820E-01  1.8160550845044E+00
106  1.0500000000000E+00 -2.4045602968417E-01  1.8259598902007E+00
107  1.0600000000000E+00 -2.6833203796209E-01  1.8291855867844E+00
108  1.0700000000000E+00 -2.9360594577362E-01  1.8254974455503E+00
109  1.0800000000000E+00 -3.1621836198910E-01  1.8147204988782E+00
110  1.0900000000000E+00 -3.3612701607152E-01  1.7967426942956E+00
111  1.1000000000000E+00 -3.5330714180394E-01  1.7715173208472E+00
112  1.1100000000000E+00 -3.6775167905960E-01  1.7390646875001E+00
113  1.1200000000000E+00 -3.7947129432912E-01  1.6994730464804E+00
114  1.1300000000000E+00 -3.8849422410275E-01  1.6528987673039E+00
115  1.1400000000000E+00 -3.9486594848712E-01  1.5995657795994E+00
116  1.1500000000000E+00 -3.9864870548593E-01  1.5397643141278E+00
117  1.1600000000000E+00 -3.9992085913139E-01  1.4738489814283E+00
118  1.1700000000000E+00 -3.9877613699007E-01  1.4022362357688E+00
119  1.1800000000000E+00 -3.9532275441620E-01  1.3254012782827E+00
120  1.1900000000000E+00 -3.8968244416751E-01  1.2438744568749E+00
121  1.2000000000000E+00 -3.8198941055834E-01  1.1582372213698E+00
122  1.2100000000000E+00 -3.7238922710325E-01  1.0691176901007E+00
123  1.2200000000000E+00 -3.6103769551665E-01  9.7718587834210E-01
124  1.2300000000000E+00 -3.4809968189467E-01  8.8314862936311E-01
125  1.2400000000000E+00 -3.3374794285915E-01  7.8774427521385E-01
126  1.2500000000000E+00 -3.1816195026693E-01  6.9173703615799E-01
127  1.2600000000000E+00 -3.0152671778391E-01  5.9591114497726E-01
128  1.2700000000000E+00 -2.8403162607949E-01  5.0106465474536E-01
129  1.2800000000000E+00 -2.6586923555105E-01  4.0800285585767E-01
130  1.2900000000000E+00 -2.4723406635605E-01  3.1753119020005E-01
131  1.3000000000000E+00 -2.2832131499302E-01  2.3044750686123E-01
132  1.3100000000000E+00 -2.0932546470168E-01  1.4753345463318E-01
133  1.3200000000000E+00 -1.9043873355502E-01  6.9544751743453E-02