Lu    ONCVPSP-4.0.1  r_core=   2.01127   1.60232   1.90585   1.30742
71.0000     25.0000      241015    zatom,zion,pspd
8      11   3     4   600     0    pspcod,pspxc,lmax,lloc,mmax,r2well
5.99000000  4.00000000  0.00000000    rchrg fchrg qchrg
3     2     2     2     0    nproj
1     1           extension_switch
0                         1.1636453532925E+01  3.1075281944699E+00  6.2470421576111E-01
1  0.0000000000000E+00 -8.3933249239720E-10  1.6342556474758E-09 -2.4417554644884E-09
2  1.0000000000000E-02  6.7144551587103E-02 -2.6651464310793E-02  5.1307093293427E-02
3  2.0000000000000E-02  1.3406691354304E-01 -5.2985579879642E-02  1.0213343023728E-01
4  3.0000000000000E-02  2.0054667359711E-01 -7.8688371331929E-02  1.5200347727832E-01
5  4.0000000000000E-02  2.6636695486838E-01 -1.0345257206229E-01  2.0045208858787E-01
6  5.0000000000000E-02  3.3131613544832E-01 -1.2698088412507E-01  2.4702955587971E-01
7  6.0000000000000E-02  3.9518951084941E-01 -1.4898912590129E-01  2.9130648712150E-01
8  7.0000000000000E-02  4.5779088127009E-01 -1.6920923207073E-01  3.3287845999574E-01
9  8.0000000000000E-02  5.1893404646513E-01 -1.8739207205152E-01  3.7137039840822E-01
10  9.0000000000000E-02  5.7844419204283E-01 -2.0331005507944E-01  4.0644062334547E-01
11  1.0000000000000E-01  6.3615915222476E-01 -2.1675949246551E-01  4.3778453292102E-01
12  1.1000000000000E-01  6.9193053548680E-01 -2.2756269026546E-01  4.6513787048374E-01
13  1.2000000000000E-01  7.4562470103872E-01 -2.3556974859447E-01  4.8827954415160E-01
14  1.3000000000000E-01  7.9712357577468E-01 -2.4066004708898E-01  5.0703396603322E-01
15  1.4000000000000E-01  8.4632530312350E-01 -2.4274339952351E-01  5.2127288465657E-01
16  1.5000000000000E-01  8.9314471712367E-01 -2.4176086429498E-01  5.3091668968732E-01
17  1.6000000000000E-01  9.3751363702495E-01 -2.3768520135140E-01  5.3593517382682E-01
18  1.7000000000000E-01  9.7938097975344E-01 -2.3052097012403E-01  5.3634774277367E-01
19  1.8000000000000E-01  1.0187126896488E+00 -2.2030426708025E-01  5.3222307024969E-01
20  1.9000000000000E-01  1.0554914869669E+00 -2.0710210560238E-01  5.2367820126357E-01
21  2.0000000000000E-01  1.0897164387168E+00 -1.9101144497414E-01  5.1087711295160E-01
22  2.1000000000000E-01  1.1214023574430E+00 -1.7215787927175E-01  4.9402874842315E-01
23  2.2000000000000E-01  1.1505790355504E+00 -1.5069400087228E-01  4.7338454498944E-01
24  2.3000000000000E-01  1.1772903246775E+00 -1.2679745705643E-01  4.4923548389267E-01
25  2.4000000000000E-01  1.2015930714290E+00 -1.0066872176185E-01  4.2190869412675E-01
26  2.5000000000000E-01  1.2235559224663E+00 -7.2528607887537E-02  3.9176364807781E-01
27  2.6000000000000E-01  1.2432580134962E+00 -4.2615548626887E-02  3.5918799146123E-01
28  2.7000000000000E-01  1.2607875580825E+00 -1.1182679076104E-02  3.2459305433388E-01
29  2.8000000000000E-01  1.2762403534104E+00  2.1505248204436E-02  2.8840909376581E-01
30  2.9000000000000E-01  1.2897182211481E+00  5.5175077939413E-02  2.5108032201577E-01
31  3.0000000000000E-01  1.3013274023576E+00  8.9548559796595E-02  2.1305977673467E-01
32  3.1000000000000E-01  1.3111769259958E+00  1.2434571030779E-01  1.7480409177736E-01
33  3.2000000000000E-01  1.3193769709180E+00  1.5928818959601E-01  1.3676822861637E-01
34  3.3000000000000E-01  1.3260372414233E+00  1.9410265309402E-01  9.9400229089663E-02
35  3.4000000000000E-01  1.3312653762860E+00  2.2852403853479E-01  6.3136050274602E-02
36  3.5000000000000E-01  1.3351654108765E+00  2.6229874905545E-01  2.8394541641174E-02
37  3.6000000000000E-01  1.3378363114052E+00  2.9518769426998E-01 -4.4273766843417E-03
38  3.7000000000000E-01  1.3393705995197E+00  3.2696915263786E-01 -3.4959277729658E-02
39  3.8000000000000E-01  1.3398530844609E+00  3.5744142035922E-01 -6.2861479418398E-02
40  3.9000000000000E-01  1.3393597187492E+00  3.8642521435744E-01 -8.7828933427394E-02
41  4.0000000000000E-01  1.3379565919285E+00  4.1376579963388E-01 -1.0959470427650E-01
42  4.1000000000000E-01  1.3356990752795E+00  4.3933481437681E-01 -1.2793299628086E-01
43  4.2000000000000E-01  1.3326311286181E+00  4.6303176963686E-01 -1.4266169103093E-01
44  4.3000000000000E-01  1.3287847783607E+00  4.8478520411645E-01 -1.5364436358413E-01
45  4.4000000000000E-01  1.3241797739717E+00  5.0455347861169E-01 -1.6079175148274E-01
46  4.5000000000000E-01  1.3188234277435E+00  5.2232519885134E-01 -1.6406265699840E-01
47  4.6000000000000E-01  1.3127106406186E+00  5.3811925985022E-01 -1.6346426957137E-01
48  4.7000000000000E-01  1.3058241144667E+00  5.5198450938346E-01 -1.5905190219286E-01
49  4.8000000000000E-01  1.2981347489177E+00  5.6399903273805E-01 -1.5092814238500E-01
50  4.9000000000000E-01  1.2896022185396E+00  5.7426906545938E-01 -1.3924142539686E-01
51  5.0000000000000E-01  1.2801757238766E+00  5.8292754532339E-01 -1.2418404416323E-01
52  5.1000000000000E-01  1.2697949076476E+00  5.9013231917898E-01 -1.0598961739291E-01
53  5.2000000000000E-01  1.2583909252858E+00  5.9606402455878E-01 -8.4930043770099E-02
54  5.3000000000000E-01  1.2458876569963E+00  6.0092367000605E-01 -6.1311976601321E-02
55  5.4000000000000E-01  1.2322030466489E+00  6.0492994184812E-01 -3.5472859222821E-02
56  5.5000000000000E-01  1.2172505511375E+00  6.0831626862276E-01 -7.7765670400869E-03
57  5.6000000000000E-01  1.2009406823380E+00  6.1132767748229E-01  2.1391292880289E-02
58  5.7000000000000E-01  1.1831826225158E+00  6.1421747962155E-01  5.1628369266950E-02
59  5.8000000000000E-01  1.1638858929851E+00  6.1724382405960E-01  8.2520781904622E-02
60  5.9000000000000E-01  1.1429620550130E+00  6.2066616092773E-01  1.1364850228767E-01
61  6.0000000000000E-01  1.1203264214252E+00  6.2474165673494E-01  1.4459083483153E-01
62  6.1000000000000E-01  1.0958997570892E+00  6.2972160489952E-01  1.7493193213274E-01
63  6.2000000000000E-01  1.0696099464547E+00  6.3584787511139E-01  2.0426627690746E-01
64  6.3000000000000E-01  1.0413936066077E+00  6.4334944484241E-01  2.3220406317428E-01
65  6.4000000000000E-01  1.0111976248460E+00  6.5243905553036E-01  2.5837641001507E-01
66  6.5000000000000E-01  9.7898060060809E-01  6.6331003464640E-01  2.8244034282861E-01
67  6.6000000000000E-01  9.4471417267046E-01  6.7613332302602E-01  3.0408347937628E-01
68  6.7000000000000E-01  9.0838421386061E-01  6.9105474451577E-01  3.2302836109237E-01
69  6.8000000000000E-01  8.6999187709699E-01  7.0819255220107E-01  3.3903637404273E-01
70  6.9000000000000E-01  8.2955447834412E-01  7.2763528225508E-01  3.5191120854219E-01
71  7.0000000000000E-01  7.8710620403609E-01  7.4943994283869E-01  3.6150181170851E-01
72  7.1000000000000E-01  7.4269863265222E-01  7.7363056152329E-01  3.6770479309476E-01
73  7.2000000000000E-01  6.9640106239327E-01  8.0019711045677E-01  3.7046624992182E-01
74  7.3000000000000E-01  6.4830063927693E-01  8.2909482400517E-01  3.6978298525485E-01
75  7.4000000000000E-01  5.9850228241431E-01  8.6024391893409E-01  3.6570309964824E-01
76  7.5000000000000E-01  5.4712840571190E-01  8.9352972240835E-01  3.5832594423620E-01
77  7.6000000000000E-01  4.9431843773100E-01  9.2880320824982E-01  3.4780143087441E-01
78  7.7000000000000E-01  4.4022814389504E-01  9.6588193706457E-01  3.3432870265240E-01
79  7.8000000000000E-01  3.8502875763092E-01  1.0045513910960E+00  3.1815417579888E-01
80  7.9000000000000E-01  3.2890592932853E-01  1.0445666900445E+00  2.9956897159767E-01
81  8.0000000000000E-01  2.7205850417296E-01  1.0856546696747E+00  2.7890576432939E-01
82  8.1000000000000E-01  2.1469714191480E-01  1.1275163008701E+00  2.5653507835931E-01
83  8.2000000000000E-01  1.5704279346965E-01  1.1698294229387E+00  2.3286107422630E-01
84  8.3000000000000E-01  9.9325050852707E-02  1.2122517614761E+00  2.0831686986675E-01
85  8.4000000000000E-01  4.1780388336810E-02  1.2544241979953E+00  1.8335944885906E-01
86  8.5000000000000E-01 -1.5349686143519E-02  1.2959742558656E+00  1.5846421273899E-01
87  8.6000000000000E-01 -7.1820549447669E-02  1.3365197649019E+00  1.3411923895582E-01
88  8.7000000000000E-01 -1.2738643104923E-01  1.3756726652232E+00  1.1081930986842E-01
89  8.8000000000000E-01 -1.8180240939948E-01  1.4130429097737E+00  8.9059781289028E-02
90  8.9000000000000E-01 -2.3482641596093E-01  1.4482424241667E+00  6.9330361441308E-02
91  9.0000000000000E-01 -2.8622122625251E-01  1.4808890822722E+00  5.2108872804144E-02
92  9.1000000000000E-01 -3.3575641772315E-01  1.5106106562053E+00  3.7855070149045E-02
93  9.2000000000000E-01 -3.8321027498438E-01  1.5370487000610E+00  2.7004588173066E-02
94  9.3000000000000E-01 -4.2837162387268E-01  1.5598623278575E+00  1.9963091479008E-02
95  9.4000000000000E-01 -4.7104157694868E-01  1.5787318476489E+00  1.7100698304856E-02
96  9.5000000000000E-01 -5.1103517434932E-01  1.5933622156108E+00  1.8746747377106E-02
97  9.6000000000000E-01 -5.4818290535960E-01  1.6034862760434E+00  2.5184974599491E-02
98  9.7000000000000E-01 -5.8233209762724E-01  1.6088677556138E+00  3.6649163039640E-02
99  9.8000000000000E-01 -6.1334816257623E-01  1.6093039827281E+00  5.3319325873236E-02
100  9.9000000000000E-01 -6.4111568724363E-01  1.6046283056211E+00  7.5318477643880E-02
101  1.0000000000000E+00 -6.6553936443502E-01  1.5947121855279E+00  1.0271004443358E-01
102  1.0100000000000E+00 -6.8654475473404E-01  1.5794669441001E+00  1.3549595834036E-01
103  1.0200000000000E+00 -7.0407887547519E-01  1.5588451470071E+00  1.7361547606251E-01
104  1.0300000000000E+00 -7.1811061326828E-01  1.5328416083759E+00  2.1694475539749E-01
105  1.0400000000000E+00 -7.2863095802429E-01  1.5014940033449E+00  2.6529721707506E-01
106  1.0500000000000E+00 -7.3565305765244E-01  1.4648830785104E+00  3.1842471253282E-01
107  1.0600000000000E+00 -7.3921209366635E-01  1.4231324524345E+00  3.7601951097526E-01
108  1.0700000000000E+00 -7.3936497884707E-01  1.3764080006547E+00  4.3771711124313E-01
109  1.0800000000000E+00 -7.3618987886651E-01  1.3249168218364E+00  5.0309987556611E-01
110  1.0900000000000E+00 -7.2978556038664E-01  1.2689057838610E+00  5.7170147306879E-01
111  1.1000000000000E+00 -7.2027056865035E-01  1.2086596508531E+00  6.4301211070678E-01
112  1.1100000000000E+00 -7.0778223799605E-01  1.1444987944721E+00  7.1648451803102E-01
113  1.1200000000000E+00 -6.9247553912148E-01  1.0767764953958E+00  7.9154063941859E-01
114  1.1300000000000E+00 -6.7452176735004E-01  1.0058758439192E+00  8.6757897302942E-01
115  1.1400000000000E+00 -6.5410707670467E-01  9.3220625219587E-01  9.4398247923390E-01
116  1.1500000000000E+00 -6.3143086535932E-01  8.5619959505325E-01  1.0201269623987E+00
117  1.1600000000000E+00 -6.0670401914680E-01  7.7830600180429E-01  1.0953898080407E+00
118  1.1700000000000E+00 -5.8014702136824E-01  6.9898932828284E-01  1.1691589322524E+00
119  1.1800000000000E+00 -5.5198793936385E-01  6.1872234689056E-01  1.2408417709843E+00
120  1.1900000000000E+00 -5.2246030129173E-01  5.3798170295084E-01  1.3098741031982E+00
121  1.2000000000000E+00 -4.9180088059260E-01  4.5724269877552E-01  1.3757284626344E+00
122  1.2100000000000E+00 -4.6024741083054E-01  3.7697398274091E-01  1.4379218480581E+00
123  1.2200000000000E+00 -4.2803626031942E-01  2.9763224009763E-01  1.4960223897794E+00
124  1.2300000000000E+00 -3.9540010440880E-01  2.1965700563479E-01  1.5496545704907E+00
125  1.2400000000000E+00 -3.6256564376075E-01  1.4346574616969E-01  1.5985025302747E+00
126  1.2500000000000E+00 -3.2975142988748E-01  6.9449394202266E-02  1.6423109070410E+00
127  1.2600000000000E+00 -2.9716587478098E-01 -2.0314468823428E-03  1.6808825748187E+00
128  1.2700000000000E+00 -2.6500554020040E-01 -7.0649359766124E-02  1.7140725410521E+00
129  1.2800000000000E+00 -2.3345382453464E-01 -1.3611171236553E-01  1.7417771490482E+00
130  1.2900000000000E+00 -2.0268019159294E-01 -1.9816061685014E-01  1.7639175979242E+00
131  1.3000000000000E+00 -1.7284011396607E-01 -2.5657080218600E-01  1.7804167056086E+00
132  1.3100000000000E+00 -1.4407595688660E-01 -3.1114482049126E-01  1.7911672579043E+00
133  1.3200000000000E+00 -1.1651818395753E-01 -3.6170754898560E-01  1.7960100642867E+00
134  1.3300000000000E+00 -9.0283426624466E-02 -4.0811059736136E-01  1.7947918002857E+00
135  1.3400000000000E+00 -6.5472478155817E-02 -4.5023774530253E-01  1.7874122413860E+00
136  1.3500000000000E+00 -4.2170130670189E-02 -4.8800524466905E-01  1.7738254181223E+00
137  1.3600000000000E+00 -2.0445189173879E-02 -5.2136173225528E-01  1.7540396195344E+00
138  1.3700000000000E+00 -3.5063968548663E-04 -5.5028781611429E-01  1.7281166004080E+00
139  1.3800000000000E+00  1.8076046408033E-02 -5.7479537929018E-01  1.6961703149328E+00
140  1.3900000000000E+00  3.4812479388805E-02 -5.9492661489144E-01  1.6583651828340E+00
141  1.4000000000000E+00  4.9850798724404E-02 -6.1075280967545E-01  1.6149139102104E+00
142  1.4100000000000E+00  6.3197011254569E-02 -6.2237289580558E-01  1.5660748940527E+00
143  1.4200000000000E+00  7.4870231067542E-02 -6.2991179228186E-01  1.5121492428652E+00
144  1.4300000000000E+00  8.4901832771384E-02 -6.3351855914667E-01  1.4534774492350E+00
145  1.4400000000000E+00  9.3334530385985E-02 -6.3336438884625E-01  1.3904357530677E+00
146  1.4500000000000E+00  1.0022139441747E-01 -6.2964046003635E-01  1.3234322363549E+00
147  1.4600000000000E+00  1.0562481981259E-01 -6.2255567961061E-01  1.2529026917020E+00
148  1.4700000000000E+00  1.0961545781636E-01 -6.1233433988946E-01  1.1793063115672E+00
149  1.4800000000000E+00  1.1227112386146E-01 -5.9921371575698E-01  1.1031212374321E+00
150  1.4900000000000E+00  1.1367569434452E-01 -5.8344162907070E-01  1.0248400198399E+00
151  1.5000000000000E+00  1.1391800417727E-01 -5.6527400554029E-01  9.4496503397711E-01
152  1.5100000000000E+00  1.1309075607517E-01 -5.4497244735423E-01  8.6400389058820E-01
153  1.5200000000000E+00  1.1128945279426E-01 -5.2280184630451E-01  7.8246489130931E-01
154  1.5300000000000E+00  1.0861136200303E-01 -4.9902805870228E-01  7.0085256752239E-01
155  1.5400000000000E+00  1.0515452296372E-01 -4.7391566282197E-01  6.1966334386112E-01
156  1.5500000000000E+00  1.0101680315972E-01 -4.4772581761391E-01  5.3938136413679E-01
157  1.5600000000000E+00  9.6295012057645E-02 -4.2071423969312E-01  4.6047451532712E-01
158  1.5700000000000E+00  9.1084078122821E-02 -3.9312931355134E-01  3.8339068212355E-01
159  1.5800000000000E+00  8.5476294163947E-02 -3.6521034793638E-01  3.0855426163624E-01
160  1.5900000000000E+00  7.9560635018095E-02 -3.3718598925408E-01  2.3636296464949E-01
161  1.6000000000000E+00  7.3422150481514E-02 -3.0927280061466E-01  1.6718492609810E-01
162  1.6100000000000E+00  6.7141435378682E-02 -2.8167401310593E-01  1.0135614420768E-01
163  1.6200000000000E+00  6.0794177608495E-02 -2.5457845367507E-01  3.9178263858077E-02
164  1.6300000000000E+00  5.4450784048877E-02 -2.2815965198486E-01 -1.9083283783341E-02
165  1.6400000000000E+00  4.8176083252598E-02 -2.0257512655049E-01 -7.3200777160115E-02
166  1.6500000000000E+00  4.2029103036587E-02 -1.7796584863239E-01 -1.2298533098575E-01
167  1.6600000000000E+00  3.6062920266507E-02 -1.5445588053131E-01 -1.6828765256608E-01
168  1.6700000000000E+00  3.0324579422847E-02 -1.3215218324366E-01 -2.0899843021278E-01
169  1.6800000000000E+00  2.4855075949131E-02 -1.1114458699851E-01 -2.4504835927105E-01
170  1.6900000000000E+00  1.9689399839338E-02 -9.1505916793053E-02 -2.7640781455903E-01
171  1.7000000000000E+00  1.4856634509594E-02 -7.3292263895389E-02 -3.0308618085313E-01
172  1.7100000000000E+00  1.0380105236914E-02 -5.6543392235922E-02 -3.2513085833595E-01
173  1.7200000000000E+00  6.2775737288264E-03 -4.1283273835906E-02 -3.4262594727483E-01
174  1.7300000000000E+00  2.5614677535316E-03 -2.7520728709072E-02 -3.5569066347933E-01
175  1.7400000000000E+00 -7.6085201612463E-04 -1.5250176172041E-02 -3.6447745824717E-01
176  1.7500000000000E+00 -3.6868005051713E-03 -4.4524686561479E-03 -3.6916990681425E-01
177  1.7600000000000E+00 -6.2182545845984E-03  4.9041970838843E-03 -3.6998037104624E-01
178  1.7700000000000E+00 -8.3612229459749E-03  1.2863304579072E-02 -3.6714746345872E-01
179  1.7800000000000E+00 -1.0125505164161E-02  1.9478991710481E-02 -3.6093334197968E-01
180  1.7900000000000E+00 -1.1524344578593E-02  2.4814985855710E-02 -3.5162086117245E-01
181  1.8000000000000E+00 -1.2574079600769E-02  2.8943512160120E-02 -3.3951060802122E-01
182  1.8100000000000E+00 -1.3293797564455E-02  3.1944186257827E-02 -3.2491784997628E-01
183  1.8200000000000E+00 -1.3704994845750E-02  3.3902902274354E-02 -3.0816942307695E-01
184  1.8300000000000E+00 -1.3831246532442E-02  3.4910726287043E-02 -2.8960058766182E-01
185  1.8400000000000E+00 -1.3697888465643E-02  3.5062804710246E-02 -2.6955187867031E-01
186  1.8500000000000E+00 -1.3331714040944E-02  3.4457296373166E-02 -2.4836597696525E-01
187  1.8600000000000E+00 -1.2760687669298E-02  3.3194336197545E-02 -2.2638462705994E-01
188  1.8700000000000E+00 -1.2013676399911E-02  3.1375037679768E-02 -2.0394562581657E-01
189  1.8800000000000E+00 -1.1120188255272E-02  2.9100518965260E-02 -1.8137988110589E-01
190  1.8900000000000E+00 -1.0110257098173E-02  2.6471197923051E-02 -1.5900883320112E-01
191  1.9000000000000E+00 -9.0138498814323E-03  2.3585286067787E-02 -1.3714104700201E-01
192  1.9100000000000E+00 -7.8615526338339E-03  2.0539502178176E-02 -1.1607139169169E-01
193  1.9200000000000E+00 -6.6951454712558E-03  1.7446912625281E-02 -9.6099706962272E-02
194  1.9300000000000E+00 -5.5565134976971E-03  1.4417434805506E-02 -7.7507402431398E-02
195  1.9400000000000E+00 -4.4653037878129E-03  1.1518887058945E-02 -6.0512140674739E-02
196  1.9500000000000E+00 -3.4430205976067E-03  8.8181561767099E-03 -4.5313152760580E-02
197  1.9600000000000E+00 -2.5114315024785E-03  6.3781841202873E-03 -3.2086861250969E-02
198  1.9700000000000E+00 -1.6927709927320E-03  4.2580878104232E-03 -2.0986190792914E-02
199  1.9800000000000E+00 -1.0099550638123E-03  2.5135679074330E-03 -1.2143156581177E-02
200  1.9900000000000E+00 -4.8340390143841E-04  1.1892939969652E-03 -5.6351007915317E-03
201  2.0000000000000E+00 -1.4216275641577E-04  3.4528848758012E-04 -1.6039247936818E-03
202  2.0100000000000E+00 -6.2265299624295E-06  1.4790018907627E-05 -6.6034859365662E-05
203  2.0200000000000E+00  4.8180990986140E-06 -1.1524908084401E-05  5.2431831592017E-05
204  2.0300000000000E+00 -2.3219805597415E-06  5.6015177295232E-06 -2.5778681867880E-05
205  2.04  0. -0.  0.
206  2.05  0. -0.  0.
207  2.06  0.  0.  0.
208  2.07  0.  0.  0.
209  2.08  0.  0.  0.
210  2.09  0.  0.  0.
211  2.10  0.  0.  0.
212  2.11  0.  0.  0.
213  2.12  0.  0.  0.
214  2.13  0.  0.  0.
215  2.14  0.  0.  0.
216  2.15  0.  0.  0.
217  2.16  0.  0.  0.
218  2.17  0.  0.  0.
219  2.18  0.  0.  0.
220  2.19  0.  0.  0.
221  2.20  0.  0.  0.
222  2.21  0.  0.  0.
223  2.22  0.  0.  0.
224  2.23  0.  0.  0.
225  2.24  0.  0.  0.
226  2.25  0.  0.  0.
227  2.26  0.  0.  0.
228  2.27  0.  0.  0.
229  2.28  0.  0.  0.
230  2.29  0.  0.  0.
231  2.30  0.  0.  0.
232  2.31  0.  0.  0.
233  2.32  0.  0.  0.
234  2.33  0.  0.  0.
235  2.34  0.  0.  0.
236  2.35  0.  0.  0.
237  2.36  0.  0.  0.
238  2.37  0.  0.  0.
239  2.38  0.  0.  0.
240  2.39  0.  0.  0.
241  2.40  0.  0.  0.
242  2.41  0.  0.  0.
243  2.42  0.  0.  0.
244  2.43  0.  0.  0.
245  2.44  0.  0.  0.
246  2.45  0.  0.  0.
247  2.46  0.  0.  0.
248  2.47  0.  0.  0.
249  2.48  0.  0.  0.
250  2.49  0.  0.  0.
251  2.50  0.  0.  0.
252  2.51  0.  0.  0.
253  2.52  0.  0.  0.
254  2.53  0.  0.  0.
255  2.54  0.  0.  0.
256  2.55  0.  0.  0.
257  2.56  0.  0.  0.
258  2.57  0.  0.  0.
259  2.58  0.  0.  0.
260  2.59  0.  0.  0.
261  2.60  0.  0.  0.
262  2.61  0.  0.  0.
263  2.62  0.  0.  0.
264  2.63  0.  0.  0.
265  2.64  0.  0.  0.
266  2.65  0.  0.  0.
267  2.66  0.  0.  0.
268  2.67  0.  0.  0.
269  2.68  0.  0.  0.
270  2.69  0.  0.  0.
271  2.70  0.  0.  0.
272  2.71  0.  0.  0.
273  2.72  0.  0.  0.
274  2.73  0.  0.  0.
275  2.74  0.  0.  0.
276  2.75  0.  0.  0.
277  2.76  0.  0.  0.
278  2.77  0.  0.  0.
279  2.78  0.  0.  0.
280  2.79  0.  0.  0.
281  2.80  0.  0.  0.
282  2.81  0.  0.  0.
283  2.82  0.  0.  0.
284  2.83  0.  0.  0.
285  2.84  0.  0.  0.
286  2.85  0.  0.  0.
287  2.86  0.  0.  0.
288  2.87  0.  0.  0.
289  2.88  0.  0.  0.
290  2.89  0.  0.  0.
291  2.90  0.  0.  0.
292  2.91  0.  0.  0.
293  2.92  0.  0.  0.
294  2.93  0.  0.  0.
295  2.94  0.  0.  0.
296  2.95  0.  0.  0.
297  2.96  0.  0.  0.
298  2.97  0.  0.  0.
299  2.98  0.  0.  0.
300  2.99  0.  0.  0.
301  3.00  0.  0.  0.
302  3.01  0.  0.  0.
303  3.02  0.  0.  0.
304  3.03  0.  0.  0.
305  3.04  0.  0.  0.
306  3.05  0.  0.  0.
307  3.06  0.  0.  0.
308  3.07  0.  0.  0.
309  3.08  0.  0.  0.
310  3.09  0.  0.  0.
311  3.10  0.  0.  0.
312  3.11  0.  0.  0.
313  3.12  0.  0.  0.
314  3.13  0.  0.  0.
315  3.14  0.  0.  0.
316  3.15  0.  0.  0.
317  3.16  0.  0.  0.
318  3.17  0.  0.  0.
319  3.18  0.  0.  0.
320  3.19  0.  0.  0.
321  3.20  0.  0.  0.
322  3.21  0.  0.  0.
323  3.22  0.  0.  0.
324  3.23  0.  0.  0.
325  3.24  0.  0.  0.
326  3.25  0.  0.  0.
327  3.26  0.  0.  0.
328  3.27  0.  0.  0.
329  3.28  0.  0.  0.
330  3.29  0.  0.  0.
331  3.30  0.  0.  0.
332  3.31  0.  0.  0.
333  3.32  0.  0.  0.
334  3.33  0.  0.  0.
335  3.34  0.  0.  0.
336  3.35  0.  0.  0.
337  3.36  0.  0.  0.
338  3.37  0.  0.  0.
339  3.38  0.  0.  0.
340  3.39  0.  0.  0.
341  3.40  0.  0.  0.
342  3.41  0.  0.  0.
343  3.42  0.  0.  0.
344  3.43  0.  0.  0.
345  3.44  0.  0.  0.
346  3.45  0.  0.  0.
347  3.46  0.  0.  0.
348  3.47  0.  0.  0.
349  3.48  0.  0.  0.
350  3.49  0.  0.  0.
351  3.50  0.  0.  0.
352  3.51  0.  0.  0.
353  3.52  0.  0.  0.
354  3.53  0.  0.  0.
355  3.54  0.  0.  0.
356  3.55  0.  0.  0.
357  3.56  0.  0.  0.
358  3.57  0.  0.  0.
359  3.58  0.  0.  0.
360  3.59  0.  0.  0.
361  3.60  0.  0.  0.
362  3.61  0.  0.  0.
363  3.62  0.  0.  0.
364  3.63  0.  0.  0.
365  3.64  0.  0.  0.
366  3.65  0.  0.  0.
367  3.66  0.  0.  0.
368  3.67  0.  0.  0.
369  3.68  0.  0.  0.
370  3.69  0.  0.  0.
371  3.70  0.  0.  0.
372  3.71  0.  0.  0.
373  3.72  0.  0.  0.
374  3.73  0.  0.  0.
375  3.74  0.  0.  0.
376  3.75  0.  0.  0.
377  3.76  0.  0.  0.
378  3.77  0.  0.  0.
379  3.78  0.  0.  0.
380  3.79  0.  0.  0.
381  3.80  0.  0.  0.
382  3.81  0.  0.  0.
383  3.82  0.  0.  0.
384  3.83  0.  0.  0.
385  3.84  0.  0.  0.
386  3.85  0.  0.  0.
387  3.86  0.  0.  0.
388  3.87  0.  0.  0.
389  3.88  0.  0.  0.
390  3.89  0.  0.  0.
391  3.90  0.  0.  0.
392  3.91  0.  0.  0.
393  3.92  0.  0.  0.
394  3.93  0.  0.  0.
395  3.94  0.  0.  0.
396  3.95  0.  0.  0.
397  3.96  0.  0.  0.
398  3.97  0.  0.  0.
399  3.98  0.  0.  0.
400  3.99  0.  0.  0.
401  4.00  0.  0.  0.
402  4.01  0.  0.  0.
403  4.02  0.  0.  0.
404  4.03  0.  0.  0.
405  4.04  0.  0.  0.
406  4.05  0.  0.  0.
407  4.06  0.  0.  0.
408  4.07  0.  0.  0.
409  4.08  0.  0.  0.
410  4.09  0.  0.  0.
411  4.10  0.  0.  0.
412  4.11  0.  0.  0.
413  4.12  0.  0.  0.
414  4.13  0.  0.  0.
415  4.14  0.  0.  0.
416  4.15  0.  0.  0.
417  4.16  0.  0.  0.
418  4.17  0.  0.  0.
419  4.18  0.  0.  0.
420  4.19  0.  0.  0.
421  4.20  0.  0.  0.
422  4.21  0.  0.  0.
423  4.22  0.  0.  0.
424  4.23  0.  0.  0.
425  4.24  0.  0.  0.
426  4.25  0.  0.  0.
427  4.26  0.  0.  0.
428  4.27  0.  0.  0.
429  4.28  0.  0.  0.
430  4.29  0.  0.  0.
431  4.30  0.  0.  0.
432  4.31  0.  0.  0.
433  4.32  0.  0.  0.
434  4.33  0.  0.  0.
435  4.34  0.  0.  0.
436  4.35  0.  0.  0.
437  4.36  0.  0.  0.
438  4.37  0.  0.  0.
439  4.38  0.  0.  0.
440  4.39  0.  0.  0.
441  4.40  0.  0.  0.
442  4.41  0.  0.  0.
443  4.42  0.  0.  0.
444  4.43  0.  0.  0.
445  4.44  0.  0.  0.
446  4.45  0.  0.  0.
447  4.46  0.  0.  0.
448  4.47  0.  0.  0.
449  4.48  0.  0.  0.
450  4.49  0.  0.  0.
451  4.50  0.  0.  0.
452  4.51  0.  0.  0.
453  4.52  0.  0.  0.
454  4.53  0.  0.  0.
455  4.54  0.  0.  0.
456  4.55  0.  0.  0.
457  4.56  0.  0.  0.
458  4.57  0.  0.  0.
459  4.58  0.  0.  0.
460  4.59  0.  0.  0.
461  4.60  0.  0.  0.
462  4.61  0.  0.  0.
463  4.62  0.  0.  0.
464  4.63  0.  0.  0.
465  4.64  0.  0.  0.
466  4.65  0.  0.  0.
467  4.66  0.  0.  0.
468  4.67  0.  0.  0.
469  4.68  0.  0.  0.
470  4.69  0.  0.  0.
471  4.70  0.  0.  0.
472  4.71  0.  0.  0.
473  4.72  0.  0.  0.
474  4.73  0.  0.  0.
475  4.74  0.  0.  0.
476  4.75  0.  0.  0.
477  4.76  0.  0.  0.
478  4.77  0.  0.  0.
479  4.78  0.  0.  0.
480  4.79  0.  0.  0.
481  4.80  0.  0.  0.
482  4.81  0.  0.  0.
483  4.82  0.  0.  0.
484  4.83  0.  0.  0.
485  4.84  0.  0.  0.
486  4.85  0.  0.  0.
487  4.86  0.  0.  0.
488  4.87  0.  0.  0.
489  4.88  0.  0.  0.
490  4.89  0.  0.  0.
491  4.90  0.  0.  0.
492  4.91  0.  0.  0.
493  4.92  0.  0.  0.
494  4.93  0.  0.  0.
495  4.94  0.  0.  0.
496  4.95  0.  0.  0.
497  4.96  0.  0.  0.
498  4.97  0.  0.  0.
499  4.98  0.  0.  0.
500  4.99  0.  0.  0.
501  5.00  0.  0.  0.
502  5.01  0.  0.  0.
503  5.02  0.  0.  0.
504  5.03  0.  0.  0.
505  5.04  0.  0.  0.
506  5.05  0.  0.  0.
507  5.06  0.  0.  0.
508  5.07  0.  0.  0.
509  5.08  0.  0.  0.
510  5.09  0.  0.  0.
511  5.10  0.  0.  0.
512  5.11  0.  0.  0.
513  5.12  0.  0.  0.
514  5.13  0.  0.  0.
515  5.14  0.  0.  0.
516  5.15  0.  0.  0.
517  5.16  0.  0.  0.
518  5.17  0.  0.  0.
519  5.18  0.  0.  0.
520  5.19  0.  0.  0.
521  5.20  0.  0.  0.
522  5.21  0.  0.  0.
523  5.22  0.  0.  0.
524  5.23  0.  0.  0.
525  5.24  0.  0.  0.
526  5.25  0.  0.  0.
527  5.26  0.  0.  0.
528  5.27  0.  0.  0.
529  5.28  0.  0.  0.
530  5.29  0.  0.  0.
531  5.30  0.  0.  0.
532  5.31  0.  0.  0.
533  5.32  0.  0.  0.
534  5.33  0.  0.  0.
535  5.34  0.  0.  0.
536  5.35  0.  0.  0.
537  5.36  0.  0.  0.
538  5.37  0.  0.  0.
539  5.38  0.  0.  0.
540  5.39  0.  0.  0.
541  5.40  0.  0.  0.
542  5.41  0.  0.  0.
543  5.42  0.  0.  0.
544  5.43  0.  0.  0.
545  5.44  0.  0.  0.
546  5.45  0.  0.  0.
547  5.46  0.  0.  0.
548  5.47  0.  0.  0.
549  5.48  0.  0.  0.
550  5.49  0.  0.  0.
551  5.50  0.  0.  0.
552  5.51  0.  0.  0.
553  5.52  0.  0.  0.
554  5.53  0.  0.  0.
555  5.54  0.  0.  0.
556  5.55  0.  0.  0.
557  5.56  0.  0.  0.
558  5.57  0.  0.  0.
559  5.58  0.  0.  0.
560  5.59  0.  0.  0.
561  5.60  0.  0.  0.
562  5.61  0.  0.  0.
563  5.62  0.  0.  0.
564  5.63  0.  0.  0.
565  5.64  0.  0.  0.
566  5.65  0.  0.  0.
567  5.66  0.  0.  0.
568  5.67  0.  0.  0.
569  5.68  0.  0.  0.
570  5.69  0.  0.  0.
571  5.70  0.  0.  0.
572  5.71  0.  0.  0.
573  5.72  0.  0.  0.
574  5.73  0.  0.  0.
575  5.74  0.  0.  0.
576  5.75  0.  0.  0.
577  5.76  0.  0.  0.
578  5.77  0.  0.  0.
579  5.78  0.  0.  0.
580  5.79  0.  0.  0.
581  5.80  0.  0.  0.
582  5.81  0.  0.  0.
583  5.82  0.  0.  0.
584  5.83  0.  0.  0.
585  5.84  0.  0.  0.
586  5.85  0.  0.  0.
587  5.86  0.  0.  0.
588  5.87  0.  0.  0.
589  5.88  0.  0.  0.
590  5.89  0.  0.  0.
591  5.90  0.  0.  0.
592  5.91  0.  0.  0.
593  5.92  0.  0.  0.
594  5.93  0.  0.  0.
595  5.94  0.  0.  0.
596  5.95  0.  0.  0.
597  5.96  0.  0.  0.
598  5.97  0.  0.  0.
599  5.98  0.  0.  0.
600  5.99  0.  0.  0.
1                         7.0987007257544E+00  8.7330921001065E-01
1  0.0000000000000E+00 -7.5274661504032E-10  1.3384581359910E-09
2  1.0000000000000E-02  1.1798811606744E-03 -6.2728798588756E-04
3  2.0000000000000E-02  4.7164720884218E-03 -2.5054334982646E-03
4  3.0000000000000E-02  1.0600606696782E-02 -5.6232756284821E-03
5  4.0000000000000E-02  1.8816980558768E-02 -9.9621951577659E-03
6  5.0000000000000E-02  2.9344111090336E-02 -1.5496091025016E-02
7  6.0000000000000E-02  4.2154284983269E-02 -2.2191353337279E-02
8  7.0000000000000E-02  5.7213495972040E-02 -3.0006838663361E-02
9  8.0000000000000E-02  7.4481376771899E-02 -3.8893854689524E-02
10  9.0000000000000E-02  9.3911129685576E-02 -4.8796162438356E-02
11  1.0000000000000E-01  1.1544946092668E-01 -5.9650005119971E-02
12  1.1000000000000E-01  1.3903652413519E-01 -7.1384173267341E-02
13  1.2000000000000E-01  1.6460587885246E-01 -8.3920116080472E-02
14  1.3000000000000E-01  1.9208446987146E-01 -9.7172108849210E-02
15  1.4000000000000E-01  2.2139263337604E-01 -1.1104748593346E-01
16  1.5000000000000E-01  2.5244413562967E-01 -1.2544694805084E-01
17  1.6000000000000E-01  2.8514624966863E-01 -1.4026495156289E-01
18  1.7000000000000E-01  3.1939987500219E-01 -1.5539018607785E-01
19  1.8000000000000E-01  3.5509970472980E-01 -1.7070614502438E-01
20  1.9000000000000E-01  3.9213444376322E-01 -1.8609179192818E-01
21  2.0000000000000E-01  4.3038708100310E-01 -2.0142232298179E-01
22  2.1000000000000E-01  4.6973521738130E-01 -2.1657002418108E-01
23  2.2000000000000E-01  5.1005145066020E-01 -2.3140521886193E-01
24  2.3000000000000E-01  5.5120381679894E-01 -2.4579729896303E-01
25  2.4000000000000E-01  5.9305628657692E-01 -2.5961583082321E-01
26  2.5000000000000E-01  6.3546931502899E-01 -2.7273172385657E-01
27  2.6000000000000E-01  6.7830044011982E-01 -2.8501844809751E-01
28  2.7000000000000E-01  7.2140492599120E-01 -2.9635328443129E-01
29  2.8000000000000E-01  7.6463644507846E-01 -3.0661858938444E-01
30  2.9000000000000E-01  8.0784779243625E-01 -3.1570305469911E-01
31  3.0000000000000E-01  8.5089162475959E-01 -3.2350294060799E-01
32  3.1000000000000E-01  8.9362121585528E-01 -3.2992326080790E-01
33  3.2000000000000E-01  9.3589121972903E-01 -3.3487889663945E-01
34  3.3000000000000E-01  9.7755843202098E-01 -3.3829561794834E-01
35  3.4000000000000E-01  1.0184825402592E+00 -3.4011098855249E-01
36  3.5000000000000E-01  1.0585268533170E+00 -3.4027513518160E-01
37  3.6000000000000E-01  1.0975590005602E+00 -3.3875136019246E-01
38  3.7000000000000E-01  1.1354515914608E+00 -3.3551658028721E-01
39  3.8000000000000E-01  1.1720828269262E+00 -3.3056157585285E-01
40  3.9000000000000E-01  1.2073370542478E+00 -3.2389103836826E-01
41  4.0000000000000E-01  1.2411052584007E+00 -3.1552340655020E-01
42  4.1000000000000E-01  1.2732854834063E+00 -3.0549048548107E-01
43  4.2000000000000E-01  1.3037831785995E+00 -2.9383684681971E-01
44  4.3000000000000E-01  1.3325114658865E+00 -2.8061901227418E-01
45  4.4000000000000E-01  1.3593913254264E+00 -2.6590442673782E-01