Lu    ONCVPSP-4.0.1  r_core=   1.55510   1.60232   1.45606   1.86079
71.0000     25.0000      230112    zatom,zion,pspd
8      11   3     4   600     0    pspcod,pspxc,lmax,lloc,mmax,r2well
5.99000000  4.00000000  0.00000000    rchrg fchrg qchrg
2     2     2     2     0    nproj
1     1           extension_switch
0                         1.2710791712336E+01  1.2638957127713E+00
1  0.0000000000000E+00  5.6522081459676E-10 -1.9077395080336E-09
2  1.0000000000000E-02  4.4399492126077E-02 -1.1329385226103E-02
3  2.0000000000000E-02  8.8799413897486E-02 -2.2721048876505E-02
4  3.0000000000000E-02  1.3319956825475E-01 -3.4235586473914E-02
5  4.0000000000000E-02  1.7759851414974E-01 -4.5930256518885E-02
6  5.0000000000000E-02  2.2199296795648E-01 -5.7857383432904E-02
7  6.0000000000000E-02  2.6637723255804E-01 -7.0062844859592E-02
8  7.0000000000000E-02  3.1074266265860E-01 -8.2584669157828E-02
9  8.0000000000000E-02  3.5507717430471E-01 -9.5451767012825E-02
10  9.0000000000000E-02  3.9936480591079E-01 -1.0868281876959E-01
11  1.0000000000000E-01  4.4358533728278E-01 -1.2228533639825E-01
12  1.1000000000000E-01  4.8771397223402E-01 -1.3625491597937E-01
13  1.2000000000000E-01  5.3172108940268E-01 -1.5057469330266E-01
14  1.3000000000000E-01  5.7557206482833E-01 -1.6521501166180E-01
15  1.4000000000000E-01  6.1922716874206E-01 -1.8013330726292E-01
16  1.5000000000000E-01  6.6264153788936E-01 -1.9527421390927E-01
17  1.6000000000000E-01  7.0576522355643E-01 -2.1056988484558E-01
18  1.7000000000000E-01  7.4854331432628E-01 -2.2594052590871E-01
19  1.8000000000000E-01  7.9091613147197E-01 -2.4129513050361E-01
20  1.9000000000000E-01  8.3281949381683E-01 -2.5653240346818E-01
21  2.0000000000000E-01  8.7418504787448E-01 -2.7154185766976E-01
22  2.1000000000000E-01  9.1494065814126E-01 -2.8620506424668E-01
23  2.2000000000000E-01  9.5501085156558E-01 -3.0039703482336E-01
24  2.3000000000000E-01  9.9431730947598E-01 -3.1398771183264E-01
25  2.4000000000000E-01  1.0327793996256E+00 -3.2684354131561E-01
26  2.5000000000000E-01  1.0703147405130E+00 -3.3882910126754E-01
27  2.6000000000000E-01  1.1068397897797E+00 -3.4980875778480E-01
28  2.7000000000000E-01  1.1422704482603E+00 -3.5964832095575E-01
29  2.8000000000000E-01  1.1765226711884E+00 -3.6821667263636E-01
30  2.9000000000000E-01  1.2095130781261E+00 -3.7538733895569E-01
31  3.0000000000000E-01  1.2411595533940E+00 -3.8103998159591E-01
32  3.1000000000000E-01  1.2713818291254E+00 -3.8506178356623E-01
33  3.2000000000000E-01  1.3001020435484E+00 -3.8734870730936E-01
34  3.3000000000000E-01  1.3272452676940E+00 -3.8780660550716E-01
35  3.4000000000000E-01  1.3527399944392E+00 -3.8635216784269E-01
36  3.5000000000000E-01  1.3765185846005E+00 -3.8291369017654E-01
37  3.6000000000000E-01  1.3985176656761E+00 -3.7743165604962E-01
38  3.7000000000000E-01  1.4186784797902E+00 -3.6985912406749E-01
39  3.8000000000000E-01  1.4369471783873E+00 -3.6016191848663E-01
40  3.9000000000000E-01  1.4532750622555E+00 -3.4831862414086E-01
41  4.0000000000000E-01  1.4676187664888E+00 -3.3432039064454E-01
42  4.1000000000000E-01  1.4799403910280E+00 -3.1817055451628E-01
43  4.2000000000000E-01  1.4902075784115E+00 -2.9988409141210E-01
44  4.3000000000000E-01  1.4983935413199E+00 -2.7948691397221E-01
45  4.4000000000000E-01  1.5044770433723E+00 -2.5701503380350E-01
46  4.5000000000000E-01  1.5084423374372E+00 -2.3251360878449E-01
47  4.6000000000000E-01  1.5102790664125E+00 -2.0603589913139E-01
48  4.7000000000000E-01  1.5099821320222E+00 -1.7764215746032E-01
49  4.8000000000000E-01  1.5075515376347E+00 -1.4739847937972E-01
50  4.9000000000000E-01  1.5029922114407E+00 -1.1537564191855E-01
51  5.0000000000000E-01  1.4963138165162E+00 -8.1647957319654E-02
52  5.1000000000000E-01  1.4875305543435E+00 -4.6292169392179E-02
53  5.2000000000000E-01  1.4766609682600E+00 -9.3864187211771E-03
54  5.3000000000000E-01  1.4637277530621E+00  2.8990698412870E-02
55  5.4000000000000E-01  1.4487575766055E+00  6.8760954527261E-02
56  5.5000000000000E-01  1.4317809187240E+00  1.0984717843951E-01
57  5.6000000000000E-01  1.4128319321464E+00  1.5217378830897E-01
58  5.7000000000000E-01  1.3919483293373E+00  1.9566715608809E-01
59  5.8000000000000E-01  1.3691712983313E+00  2.4025579294555E-01
60  5.9000000000000E-01  1.3445454497009E+00  2.8587034919940E-01
61  6.0000000000000E-01  1.3181187957964E+00  3.3244342648513E-01
62  6.1000000000000E-01  1.2899427623576E+00  3.7990920420462E-01
63  6.2000000000000E-01  1.2600722315341E+00  4.2820288667536E-01
64  6.3000000000000E-01  1.2285656142845E+00  4.7725998173885E-01
65  6.4000000000000E-01  1.1954849490830E+00  5.2701542581078E-01
66  6.5000000000000E-01  1.1608960228625E+00  5.7740257437546E-01
67  6.6000000000000E-01  1.1248685091849E+00  6.2835208066180E-01
68  6.7000000000000E-01  1.0874761177834E+00  6.7979068860967E-01
69  6.8000000000000E-01  1.0487967488732E+00  7.3163996916767E-01
70  6.9000000000000E-01  1.0089126450081E+00  7.8381503139187E-01
71  7.0000000000000E-01  9.6791053277306E-01  8.3622324167889E-01
72  7.1000000000000E-01  9.2588174627770E-01  8.8876298571662E-01
73  7.2000000000000E-01  8.8292232424187E-01  9.4132250833277E-01
74  7.3000000000000E-01  8.3913307247252E-01  9.9377886633700E-01
75  7.4000000000000E-01  7.9461958370788E-01  1.0459970286716E+00
76  7.5000000000000E-01  7.4949220716393E-01  1.0978291567012E+00
77  7.6000000000000E-01  7.0386596065095E-01  1.1491140953013E+00
78  7.7000000000000E-01  6.5786037883315E-01  1.1996771025597E+00
79  7.8000000000000E-01  6.1159929207136E-01  1.2493298424314E+00
80  7.9000000000000E-01  5.6521053130810E-01  1.2978706606255E+00
81  8.0000000000000E-01  5.1882555560857E-01  1.3450851594116E+00
82  8.1000000000000E-01  4.7257900024552E-01  1.3907470819947E+00
83  8.2000000000000E-01  4.2660814458753E-01  1.4346195116832E+00
84  8.3000000000000E-01  3.8105230049869E-01  1.4764563853734E+00
85  8.4000000000000E-01  3.3605212345659E-01  1.5160043149767E+00
86  8.5000000000000E-01  2.9174885012028E-01  1.5530047044325E+00
87  8.6000000000000E-01  2.4828346760221E-01  1.5871961439882E+00
88  8.7000000000000E-01  2.0579582119102E-01  1.6183170575820E+00
89  8.8000000000000E-01  1.6442366870697E-01  1.6461085735656E+00
90  8.9000000000000E-01  1.2430169102217E-01  1.6703175837312E+00
91  9.0000000000000E-01  8.5560469515106E-02  1.6906999507889E+00
92  9.1000000000000E-01  4.8325442330865E-02  1.7070238201505E+00
93  9.2000000000000E-01  1.2715852258318E-02  1.7190729882224E+00
94  9.3000000000000E-01 -2.1156300204704E-02  1.7266502764584E+00
95  9.4000000000000E-01 -5.3187284468156E-02  1.7295808582510E+00
96  9.5000000000000E-01 -8.3282633673531E-02  1.7277154844025E+00
97  9.6000000000000E-01 -1.1135809013161E-01  1.7209335524515E+00
98  9.7000000000000E-01 -1.3734048789738E-01  1.7091459655777E+00
99  9.8000000000000E-01 -1.6116855836012E-01  1.6922977281646E+00
100  9.9000000000000E-01 -1.8279364531925E-01  1.6703702273820E+00
101  1.0000000000000E+00 -2.0218031684333E-01  1.6433831533213E+00
102  1.0100000000000E+00 -2.1930686226158E-01  1.6113960142561E+00
103  1.0200000000000E+00 -2.3416566390259E-01  1.5745092084501E+00
104  1.0300000000000E+00 -2.4676343465571E-01  1.5328646195304E+00
105  1.0400000000000E+00 -2.5712131406776E-01  1.4866457087063E+00
106  1.0500000000000E+00 -2.6527481747861E-01  1.4360770839579E+00
107  1.0600000000000E+00 -2.7127363461304E-01  1.3814235336198E+00
108  1.0700000000000E+00 -2.7518127605932E-01  1.3229885194553E+00
109  1.0800000000000E+00 -2.7707456814245E-01  1.2611121322181E+00
110  1.0900000000000E+00 -2.7704299880595E-01  1.1961685206954E+00
111  1.1000000000000E+00 -2.7518791922709E-01  1.1285628132214E+00
112  1.1100000000000E+00 -2.7162160795382E-01  1.0587275584510E+00
113  1.1200000000000E+00 -2.6646620635542E-01  9.8711871973454E-01
114  1.1300000000000E+00 -2.5985253606500E-01  9.1421126451747E-01
115  1.1400000000000E+00 -2.5191881085102E-01  8.4049439676922E-01
116  1.1500000000000E+00 -2.4280925693520E-01  7.6646648632102E-01
117  1.1600000000000E+00 -2.3267265716629E-01  6.9262975413405E-01
118  1.1700000000000E+00 -2.2166083562064E-01  6.1948477675988E-01
119  1.1800000000000E+00 -2.0992710012531E-01  5.4752487657741E-01
120  1.1900000000000E+00 -1.9762466085524E-01  4.7723046666963E-01
121  1.2000000000000E+00 -1.8490504354135E-01  4.0906342043655E-01
122  1.2100000000000E+00 -1.7191651592307E-01  3.4346153616126E-01
123  1.2200000000000E+00 -1.5880254588728E-01  2.8083316575727E-01
124  1.2300000000000E+00 -1.4570030925305E-01  2.2155207481735E-01
125  1.2400000000000E+00 -1.3273926439878E-01  1.6595259790750E-01
126  1.2500000000000E+00 -1.2003980988337E-01  1.1432514878995E-01
127  1.2600000000000E+00 -1.0771203991708E-01  6.6912140047515E-02
128  1.2700000000000E+00 -9.5854610996852E-02  2.3904360440810E-02
129  1.2800000000000E+00 -8.4553731258710E-02 -1.4562148648779E-02
130  1.2900000000000E+00 -7.3882282064854E-02 -4.8408684504360E-02
131  1.3000000000000E+00 -6.3899080431134E-02 -7.7615910495343E-02
132  1.3100000000000E+00 -5.4648280004924E-02 -1.0222534542883E-01
133  1.3200000000000E+00 -4.6159301523021E-02 -1.2233815615188E-01
134  1.3300000000000E+00 -3.8448548054701E-02 -1.3810459367786E-01
135  1.3400000000000E+00 -3.1520830430178E-02 -1.4971599396936E-01
136  1.3500000000000E+00 -2.5369930424868E-02 -1.5740206618775E-01
137  1.3600000000000E+00 -1.9979291778975E-02 -1.6142771867070E-01
138  1.3700000000000E+00 -1.5322835479042E-02 -1.6208942931027E-01
139  1.3800000000000E+00 -1.1365894485187E-02 -1.5971116711674E-01
140  1.3900000000000E+00 -8.0662539987652E-03 -1.5463992110410E-01
141  1.4000000000000E+00 -5.3752820297740E-03 -1.4724089710442E-01
142  1.4100000000000E+00 -3.2391337112864E-03 -1.3789244801425E-01
143  1.4200000000000E+00 -1.6000115904463E-03 -1.2698080770247E-01
144  1.4300000000000E+00 -3.9746326245197E-04 -1.1489470205067E-01
145  1.4400000000000E+00  4.3030289656151E-04 -1.0201991288249E-01
146  1.4500000000000E+00  9.4510592270935E-04 -8.8733878609820E-02
147  1.4600000000000E+00  1.2074772701209E-03 -7.5400335363558E-02
148  1.4700000000000E+00  1.2754848339936E-03 -6.2364406379959E-02
149  1.4800000000000E+00  1.2028739671073E-03 -4.9945931802907E-02
150  1.4900000000000E+00  1.0330554149674E-03 -3.8421066503939E-02
151  1.5000000000000E+00  8.0971421024255E-04 -2.8050273844343E-02
152  1.5100000000000E+00  5.7337071190718E-04 -1.9068353675694E-02
153  1.5200000000000E+00  3.5618247658531E-04 -1.1669116747445E-02
154  1.5300000000000E+00  1.8159576137107E-04 -6.0047340948045E-03
155  1.5400000000000E+00  6.3372285661705E-05 -2.1669511451887E-03
156  1.5500000000000E+00  7.7564004314064E-06 -2.8290179656623E-04
157  1.5600000000000E+00 -9.7717762496721E-07  3.7010212480436E-05
158  1.5700000000000E+00  3.0422619016729E-07 -1.1130780951600E-05
159  1.58 -0.  0.
160  1.59  0. -0.
161  1.60  0.  0.
162  1.61  0.  0.
163  1.62  0.  0.
164  1.63  0.  0.
165  1.64  0.  0.
166  1.65  0.  0.
167  1.66  0.  0.
168  1.67  0.  0.
169  1.68  0.  0.
170  1.69  0.  0.
171  1.70  0.  0.
172  1.71  0.  0.
173  1.72  0.  0.
174  1.73  0.  0.
175  1.74  0.  0.
176  1.75  0.  0.
177  1.76  0.  0.
178  1.77  0.  0.
179  1.78  0.  0.
180  1.79  0.  0.
181  1.80  0.  0.
182  1.81  0.  0.
183  1.82  0.  0.
184  1.83  0.  0.
185  1.84  0.  0.
186  1.85  0.  0.
187  1.86  0.  0.
188  1.87  0.  0.
189  1.88  0.  0.
190  1.89  0.  0.
191  1.90  0.  0.
192  1.91  0.  0.
193  1.92  0.  0.
194  1.93  0.  0.
195  1.94  0.  0.
196  1.95  0.  0.
197  1.96  0.  0.
198  1.97  0.  0.
199  1.98  0.  0.
200  1.99  0.  0.
201  2.00  0.  0.
202  2.01  0.  0.
203  2.02  0.  0.
204  2.03  0.  0.
205  2.04  0.  0.
206  2.05  0.  0.
207  2.06  0.  0.
208  2.07  0.  0.
209  2.08  0.  0.
210  2.09  0.  0.
211  2.10  0.  0.
212  2.11  0.  0.
213  2.12  0.  0.
214  2.13  0.  0.
215  2.14  0.  0.
216  2.15  0.  0.
217  2.16  0.  0.
218  2.17  0.  0.
219  2.18  0.  0.
220  2.19  0.  0.
221  2.20  0.  0.
222  2.21  0.  0.
223  2.22  0.  0.
224  2.23  0.  0.
225  2.24  0.  0.
226  2.25  0.  0.
227  2.26  0.  0.
228  2.27  0.  0.
229  2.28  0.  0.
230  2.29  0.  0.
231  2.30  0.  0.
232  2.31  0.  0.
233  2.32  0.  0.
234  2.33  0.  0.
235  2.34  0.  0.
236  2.35  0.  0.
237  2.36  0.  0.
238  2.37  0.  0.
239  2.38  0.  0.
240  2.39  0.  0.
241  2.40  0.  0.
242  2.41  0.  0.
243  2.42  0.  0.
244  2.43  0.  0.
245  2.44  0.  0.
246  2.45  0.  0.
247  2.46  0.  0.
248  2.47  0.  0.
249  2.48  0.  0.
250  2.49  0.  0.
251  2.50  0.  0.
252  2.51  0.  0.
253  2.52  0.  0.
254  2.53  0.  0.
255  2.54  0.  0.
256  2.55  0.  0.
257  2.56  0.  0.
258  2.57  0.  0.
259  2.58  0.  0.
260  2.59  0.  0.
261  2.60  0.  0.
262  2.61  0.  0.
263  2.62  0.  0.
264  2.63  0.  0.
265  2.64  0.  0.
266  2.65  0.  0.
267  2.66  0.  0.
268  2.67  0.  0.
269  2.68  0.  0.
270  2.69  0.  0.
271  2.70  0.  0.
272  2.71  0.  0.
273  2.72  0.  0.
274  2.73  0.  0.
275  2.74  0.  0.
276  2.75  0.  0.
277  2.76  0.  0.
278  2.77  0.  0.
279  2.78  0.  0.
280  2.79  0.  0.
281  2.80  0.  0.
282  2.81  0.  0.
283  2.82  0.  0.
284  2.83  0.  0.
285  2.84  0.  0.
286  2.85  0.  0.
287  2.86  0.  0.
288  2.87  0.  0.
289  2.88  0.  0.
290  2.89  0.  0.
291  2.90  0.  0.
292  2.91  0.  0.
293  2.92  0.  0.
294  2.93  0.  0.
295  2.94  0.  0.
296  2.95  0.  0.
297  2.96  0.  0.
298  2.97  0.  0.
299  2.98  0.  0.
300  2.99  0.  0.
301  3.00  0.  0.
302  3.01  0.  0.
303  3.02  0.  0.
304  3.03  0.  0.
305  3.04  0.  0.
306  3.05  0.  0.
307  3.06  0.  0.
308  3.07  0.  0.
309  3.08  0.  0.
310  3.09  0.  0.
311  3.10  0.  0.
312  3.11  0.  0.
313  3.12  0.  0.
314  3.13  0.  0.
315  3.14  0.  0.
316  3.15  0.  0.
317  3.16  0.  0.
318  3.17  0.  0.
319  3.18  0.  0.
320  3.19  0.  0.
321  3.20  0.  0.
322  3.21  0.  0.
323  3.22  0.  0.
324  3.23  0.  0.
325  3.24  0.  0.
326  3.25  0.  0.
327  3.26  0.  0.
328  3.27  0.  0.
329  3.28  0.  0.
330  3.29  0.  0.
331  3.30  0.  0.
332  3.31  0.  0.
333  3.32  0.  0.
334  3.33  0.  0.
335  3.34  0.  0.
336  3.35  0.  0.
337  3.36  0.  0.
338  3.37  0.  0.
339  3.38  0.  0.
340  3.39  0.  0.
341  3.40  0.  0.
342  3.41  0.  0.
343  3.42  0.  0.
344  3.43  0.  0.
345  3.44  0.  0.
346  3.45  0.  0.
347  3.46  0.  0.
348  3.47  0.  0.
349  3.48  0.  0.
350  3.49  0.  0.
351  3.50  0.  0.
352  3.51  0.  0.
353  3.52  0.  0.
354  3.53  0.  0.
355  3.54  0.  0.
356  3.55  0.  0.
357  3.56  0.  0.
358  3.57  0.  0.
359  3.58  0.  0.
360  3.59  0.  0.
361  3.60  0.  0.
362  3.61  0.  0.
363  3.62  0.  0.
364  3.63  0.  0.
365  3.64  0.  0.
366  3.65  0.  0.
367  3.66  0.  0.
368  3.67  0.  0.
369  3.68  0.  0.
370  3.69  0.  0.
371  3.70  0.  0.
372  3.71  0.  0.
373  3.72  0.  0.
374  3.73  0.  0.
375  3.74  0.  0.
376  3.75  0.  0.
377  3.76  0.  0.
378  3.77  0.  0.
379  3.78  0.  0.
380  3.79  0.  0.
381  3.80  0.  0.
382  3.81  0.  0.
383  3.82  0.  0.
384  3.83  0.  0.
385  3.84  0.  0.
386  3.85  0.  0.
387  3.86  0.  0.
388  3.87  0.  0.
389  3.88  0.  0.
390  3.89  0.  0.
391  3.90  0.  0.
392  3.91  0.  0.
393  3.92  0.  0.
394  3.93  0.  0.
395  3.94  0.  0.
396  3.95  0.  0.
397  3.96  0.  0.
398  3.97  0.  0.
399  3.98  0.  0.
400  3.99  0.  0.
401  4.00  0.  0.
402  4.01  0.  0.
403  4.02  0.  0.
404  4.03  0.  0.
405  4.04  0.  0.
406  4.05  0.  0.
407  4.06  0.  0.
408  4.07  0.  0.
409  4.08  0.  0.
410  4.09  0.  0.
411  4.10  0.  0.
412  4.11  0.  0.
413  4.12  0.  0.
414  4.13  0.  0.
415  4.14  0.  0.
416  4.15  0.  0.
417  4.16  0.  0.
418  4.17  0.  0.
419  4.18  0.  0.
420  4.19  0.  0.
421  4.20  0.  0.
422  4.21  0.  0.
423  4.22  0.  0.
424  4.23  0.  0.
425  4.24  0.  0.
426  4.25  0.  0.
427  4.26  0.  0.
428  4.27  0.  0.
429  4.28  0.  0.
430  4.29  0.  0.
431  4.30  0.  0.
432  4.31  0.  0.
433  4.32  0.  0.
434  4.33  0.  0.
435  4.34  0.  0.
436  4.35  0.  0.
437  4.36  0.  0.
438  4.37  0.  0.
439  4.38  0.  0.
440  4.39  0.  0.
441  4.40  0.  0.
442  4.41  0.  0.
443  4.42  0.  0.
444  4.43  0.  0.
445  4.44  0.  0.
446  4.45  0.  0.
447  4.46  0.  0.
448  4.47  0.  0.
449  4.48  0.  0.
450  4.49  0.  0.
451  4.50  0.  0.
452  4.51  0.  0.
453  4.52  0.  0.
454  4.53  0.  0.
455  4.54  0.  0.
456  4.55  0.  0.
457  4.56  0.  0.
458  4.57  0.  0.
459  4.58  0.  0.
460  4.59  0.  0.
461  4.60  0.  0.
462  4.61  0.  0.
463  4.62  0.  0.
464  4.63  0.  0.
465  4.64  0.  0.
466  4.65  0.  0.
467  4.66  0.  0.
468  4.67  0.  0.
469  4.68  0.  0.
470  4.69  0.  0.
471  4.70  0.  0.
472  4.71  0.  0.
473  4.72  0.  0.
474  4.73  0.  0.
475  4.74  0.  0.
476  4.75  0.  0.
477  4.76  0.  0.
478  4.77  0.  0.
479  4.78  0.  0.
480  4.79  0.  0.
481  4.80  0.  0.
482  4.81  0.  0.
483  4.82  0.  0.
484  4.83  0.  0.
485  4.84  0.  0.
486  4.85  0.  0.
487  4.86  0.  0.
488  4.87  0.  0.
489  4.88  0.  0.
490  4.89  0.  0.
491  4.90  0.  0.
492  4.91  0.  0.
493  4.92  0.  0.
494  4.93  0.  0.
495  4.94  0.  0.
496  4.95  0.  0.
497  4.96  0.  0.
498  4.97  0.  0.
499  4.98  0.  0.
500  4.99  0.  0.
501  5.00  0.  0.
502  5.01  0.  0.
503  5.02  0.  0.
504  5.03  0.  0.
505  5.04  0.  0.
506  5.05  0.  0.
507  5.06  0.  0.
508  5.07  0.  0.
509  5.08  0.  0.
510  5.09  0.  0.
511  5.10  0.  0.
512  5.11  0.  0.
513  5.12  0.  0.
514  5.13  0.  0.
515  5.14  0.  0.
516  5.15  0.  0.
517  5.16  0.  0.
518  5.17  0.  0.
519  5.18  0.  0.
520  5.19  0.  0.
521  5.20  0.  0.
522  5.21  0.  0.
523  5.22  0.  0.
524  5.23  0.  0.
525  5.24  0.  0.
526  5.25  0.  0.
527  5.26  0.  0.
528  5.27  0.  0.
529  5.28  0.  0.
530  5.29  0.  0.
531  5.30  0.  0.
532  5.31  0.  0.
533  5.32  0.  0.
534  5.33  0.  0.
535  5.34  0.  0.
536  5.35  0.  0.
537  5.36  0.  0.
538  5.37  0.  0.
539  5.38  0.  0.
540  5.39  0.  0.
541  5.40  0.  0.
542  5.41  0.  0.
543  5.42  0.  0.
544  5.43  0.  0.
545  5.44  0.  0.
546  5.45  0.  0.
547  5.46  0.  0.
548  5.47  0.  0.
549  5.48  0.  0.
550  5.49  0.  0.
551  5.50  0.  0.
552  5.51  0.  0.
553  5.52  0.  0.
554  5.53  0.  0.
555  5.54  0.  0.
556  5.55  0.  0.
557  5.56  0.  0.
558  5.57  0.  0.
559  5.58  0.  0.
560  5.59  0.  0.
561  5.60  0.  0.
562  5.61  0.  0.
563  5.62  0.  0.
564  5.63  0.  0.
565  5.64  0.  0.
566  5.65  0.  0.
567  5.66  0.  0.
568  5.67  0.  0.
569  5.68  0.  0.
570  5.69  0.  0.
571  5.70  0.  0.
572  5.71  0.  0.
573  5.72  0.  0.
574  5.73  0.  0.
575  5.74  0.  0.
576  5.75  0.  0.
577  5.76  0.  0.
578  5.77  0.  0.
579  5.78  0.  0.
580  5.79  0.  0.
581  5.80  0.  0.
582  5.81  0.  0.
583  5.82  0.  0.
584  5.83  0.  0.
585  5.84  0.  0.
586  5.85  0.  0.
587  5.86  0.  0.
588  5.87  0.  0.
589  5.88  0.  0.
590  5.89  0.  0.
591  5.90  0.  0.
592  5.91  0.  0.
593  5.92  0.  0.
594  5.93  0.  0.
595  5.94  0.  0.
596  5.95  0.  0.
597  5.96  0.  0.
598  5.97  0.  0.
599  5.98  0.  0.
600  5.99  0.  0.
1                         8.6887191177391E+00  1.1306611839261E+00
1  0.0000000000000E+00 -5.9282123654469E-10  1.4385306973397E-09
2  1.0000000000000E-02  1.1209424776655E-03 -6.7821890534672E-04
3  2.0000000000000E-02  4.4812909977547E-03 -2.7105368073027E-03
4  3.0000000000000E-02  1.0073599353608E-02 -6.0899130050559E-03
5  4.0000000000000E-02  1.7885425996173E-02 -1.0804533013425E-02
6  5.0000000000000E-02  2.7899288462661E-02 -1.6837691639887E-02
7  6.0000000000000E-02  4.0092602020889E-02 -2.4167635325047E-02
8  7.0000000000000E-02  5.4437604911226E-02 -3.2767369610773E-02
9  8.0000000000000E-02  7.0901273160894E-02 -4.2604439038793E-02
10  9.0000000000000E-02  8.9445228474859E-02 -5.3640688050425E-02
11  1.0000000000000E-01  1.1002564316228E-01 -6.5832012525066E-02
12  1.1000000000000E-01  1.3259314642721E-01 -7.9128112433834E-02
13  1.2000000000000E-01  1.5709273662880E-01 -9.3472256675024E-02
14  1.3000000000000E-01  1.8346370429343E-01 -1.0880107148283E-01
15  1.4000000000000E-01  2.1163957073371E-01 -1.2504436384947E-01
16  1.5000000000000E-01  2.4154804709590E-01 -1.4212499116982E-01
17  1.6000000000000E-01  2.7311101851647E-01 -1.5995878780596E-01
18  1.7000000000000E-01  3.0624455782328E-01 -1.7845455848721E-01
19  1.8000000000000E-01  3.4085897287031E-01 -1.9751414741965E-01
20  1.9000000000000E-01  3.7685889115366E-01 -2.1703259069833E-01
21  2.0000000000000E-01  4.1414338482839E-01 -2.3689835812036E-01
22  2.1000000000000E-01  4.5260613864069E-01 -2.5699368881524E-01
23  2.2000000000000E-01  4.9213566261881E-01 -2.7719502327566E-01
24  2.3000000000000E-01  5.3261555064286E-01 -2.9737353242472E-01
25  2.4000000000000E-01  5.7392478525103E-01 -3.1739574233308E-01
26  2.5000000000000E-01  6.1593808825339E-01 -3.3712425114681E-01
27  2.6000000000000E-01  6.5852631592979E-01 -3.5641853274556E-01
28  2.7000000000000E-01  7.0155689680067E-01 -3.7513581966675E-01
29  2.8000000000000E-01  7.4489430919538E-01 -3.9313205594795E-01
30  2.9000000000000E-01  7.8840059511661E-01 -4.1026290879956E-01
31  3.0000000000000E-01  8.3193590622680E-01 -4.2638482646259E-01
32  3.1000000000000E-01  8.7535907717733E-01 -4.4135612827002E-01
33  3.2000000000000E-01  9.1852822097523E-01 -4.5503811184666E-01
34  3.3000000000000E-01  9.6130134064786E-01 -4.6729616158087E-01
35  3.4000000000000E-01  1.0035369511315E+00 -4.7800084200449E-01
36  3.5000000000000E-01  1.0450947050835E+00 -4.8702895954173E-01
37  3.6000000000000E-01  1.0858360162047E+00 -4.9426457624471E-01
38  3.7000000000000E-01  1.1256246736619E+00 -4.9959995962571E-01
39  3.8000000000000E-01  1.1643274413209E+00 -5.0293645352220E-01
40  3.9000000000000E-01  1.2018146357376E+00 -5.0418525607883E-01
41  4.0000000000000E-01  1.2379606772019E+00 -5.0326809238497E-01
42  4.1000000000000E-01  1.2726446085852E+00 -5.0011777104310E-01
43  4.2000000000000E-01  1.3057505772909E+00 -4.9467861593100E-01
44  4.3000000000000E-01  1.3371682762481E+00 -4.8690676662603E-01
45  4.4000000000000E-01  1.3667933406006E+00 -4.7677034333866E-01
46  4.5000000000000E-01  1.3945276975159E+00 -4.6424947471128E-01
47  4.6000000000000E-01  1.4202798673578E+00 -4.4933618942684E-01
48  4.7000000000000E-01  1.4439652153119E+00 -4.3203417518803E-01
49  4.8000000000000E-01  1.4655061534141E+00 -4.1235841121838E-01
50  4.9000000000000E-01  1.4848322937780E+00 -3.9033468294607E-01
51  5.0000000000000E-01  1.5018805546500E+00 -3.6599898990683E-01
52  5.1000000000000E-01  1.5165952217010E+00 -3.3939686009048E-01
53  5.2000000000000E-01  1.5289279676923E+00 -3.1058258590712E-01
54  5.3000000000000E-01  1.5388378343010E+00 -2.7961839861718E-01
55  5.4000000000000E-01  1.5462911804561E+00 -2.4657359941408E-01
56  5.5000000000000E-01  1.5512616019901E+00 -2.1152366633190E-01
57  5.6000000000000E-01  1.5537298277596E+00 -1.7454935674552E-01
58  5.7000000000000E-01  1.5536835976118E+00 -1.3573582541510E-01
59  5.8000000000000E-01  1.5511175276645E+00 -9.5171777785415E-02
60  5.9000000000000E-01  1.5460329683351E+00 -5.2948677580589E-02
61  6.0000000000000E-01  1.5384378603786E+00 -9.1600266358433E-03
62  6.1000000000000E-01  1.5283465938943E+00  3.6099266604060E-02
63  6.2000000000000E-01  1.5157798748321E+00  8.2733415397278E-02
64  6.3000000000000E-01  1.5007646029812E+00  1.3064616757678E-01
65  6.4000000000000E-01  1.4833337647661E+00  1.7974109332827E-01
66  6.5000000000000E-01  1.4635263434212E+00  2.2992174109926E-01
67  6.6000000000000E-01  1.4413872482835E+00  2.8109165797266E-01
68  6.7000000000000E-01  1.4169672640403E+00  3.3315427411550E-01
69  6.8000000000000E-01  1.3903230198275E+00  3.8601265429838E-01
70  6.9000000000000E-01  1.3615169771060E+00  4.3956912290417E-01
71  7.0000000000000E-01  1.3306174342695E+00  4.9372477223722E-01
72  7.1000000000000E-01  1.2976985449857E+00  5.4837886723396E-01
73  7.2000000000000E-01  1.2628403463597E+00  6.0342816279115E-01
74  7.3000000000000E-01  1.2261287921588E+00  6.5876615279961E-01
75  7.4000000000000E-01  1.1876557855712E+00  7.1428227253191E-01
76  7.5000000000000E-01  1.1475192053112E+00  7.6986107821831E-01
77  7.6000000000000E-01  1.1058229183429E+00  8.2538142940170E-01
78  7.7000000000000E-01  1.0626767720935E+00  8.8071570093575E-01
79  7.8000000000000E-01  1.0181965587818E+00  9.3572905224303E-01
80  7.9000000000000E-01  9.7250394440319E-01  9.9027878164504E-01
81  8.0000000000000E-01  9.2572635500036E-01  1.0442137931938E+00
82  8.1000000000000E-01  8.7799681311908E-01  1.0973742024611E+00
83  8.2000000000000E-01  8.2945371779012E-01  1.1495911061780E+00
84  8.3000000000000E-01  7.8024056200360E-01  1.2006865384714E+00
85  8.4000000000000E-01  7.3050558243376E-01  1.2504736337444E+00
86  8.5000000000000E-01  6.8040133712801E-01  1.2987570130181E+00
87  8.6000000000000E-01  6.3008420797720E-01  1.3453334068531E+00
88  8.7000000000000E-01  5.7971382602072E-01  1.3899925238362E+00
89  8.8000000000000E-01  5.2945241898898E-01  1.4325181691406E+00
90  8.9000000000000E-01  4.7946408192570E-01  1.4726896128957E+00
91  9.0000000000000E-01  4.2991397323913E-01  1.5102832031398E+00
92  9.1000000000000E-01  3.8096744007606E-01  1.5450742130463E+00
93  9.2000000000000E-01  3.3278907846990E-01  1.5768389070141E+00
94  9.3000000000000E-01  2.8554173525177E-01  1.6053568051870E+00
95  9.4000000000000E-01  2.3938546020401E-01  1.6304131211149E+00
96  9.5000000000000E-01  1.9447641834749E-01  1.6518013426786E+00
97  9.6000000000000E-01  1.5096577355877E-01  1.6693259221826E+00
98  9.7000000000000E-01  1.0899855588296E-01  1.6828050377367E+00
99  9.8000000000000E-01  6.8712525915741E-02  1.6920733848136E+00
100  9.9000000000000E-01  3.0237050450690E-02  1.6969849542329E+00
101  1.0000000000000E+00 -6.3079957961648E-03  1.6974157508644E+00
102  1.0100000000000E+00 -4.0813287181433E-02  1.6932664061184E+00
103  1.0200000000000E+00 -7.3181047493100E-02  1.6844646368297E+00
104  1.0300000000000E+00 -1.0332597841305E-01  1.6709675034936E+00
105  1.0400000000000E+00 -1.3117610117385E-01  1.6527634219715E+00
106  1.0500000000000E+00 -1.5667349710690E-01  1.6298738847701E+00
107  1.0600000000000E+00 -1.7977493363697E-01  1.6023548507819E+00
108  1.0700000000000E+00 -2.0045236338129E-01  1.5702977659399E+00
109  1.0800000000000E+00 -2.1869328534624E-01  1.5338301815350E+00
110  1.0900000000000E+00 -2.3450095876072E-01  1.4931159419069E+00
111  1.1000000000000E+00 -2.4789446183092E-01  1.4483549188031E+00
112  1.1100000000000E+00 -2.5890858960422E-01  1.3997822757739E+00
113  1.1200000000000E+00 -2.6759358718311E-01  1.3476672525020E+00
114  1.1300000000000E+00 -2.7401471667775E-01  1.2923114657837E+00
115  1.1400000000000E+00 -2.7825165851667E-01  1.2340467309333E+00
116  1.1500000000000E+00 -2.8039774999032E-01  1.1732324144967E+00
117  1.1600000000000E+00 -2.8055906616680E-01  1.1102523362786E+00
118  1.1700000000000E+00 -2.7885335052899E-01  1.0455112456028E+00
119  1.1800000000000E+00 -2.7540880482982E-01  9.7943090342436E-01
120  1.1900000000000E+00 -2.7036274967312E-01  9.1244580813753E-01
121  1.2000000000000E+00 -2.6386016920639E-01  8.4499860871668E-01
122  1.2100000000000E+00 -2.5605215498470E-01  7.7753525392949E-01
123  1.2200000000000E+00 -2.4709426553284E-01  7.1049993079413E-01
124  1.2300000000000E+00 -2.3714481934854E-01  6.4432984905702E-01
125  1.2400000000000E+00 -2.2636314003483E-01  5.7944993119399E-01
126  1.2500000000000E+00 -2.1490777290991E-01  5.1626746923776E-01
127  1.2600000000000E+00 -2.0293469279363E-01  4.5516681053684E-01
128  1.2700000000000E+00 -1.9059552271127E-01  3.9650413435821E-01
129  1.2800000000000E+00 -1.7803578297567E-01  3.4060238002090E-01
130  1.2900000000000E+00 -1.6539318943465E-01  2.8774638455592E-01
131  1.3000000000000E+00 -1.5279601981827E-01  2.3817829076447E-01
132  1.3100000000000E+00 -1.4036155837114E-01  1.9209323813123E-01
133  1.3200000000000E+00 -1.2819497644471E-01  1.4963734660261E-01
134  1.3300000000000E+00 -1.1638981324054E-01  1.1091418696384E-01
135  1.3400000000000E+00 -1.0502830520176E-01  7.5989008219329E-02
136  1.3500000000000E+00 -9.4181013964295E-02  4.4888188324691E-02
137  1.3600000000000E+00 -8.3906604279092E-02  1.7599146128864E-02
138  1.3700000000000E+00 -7.4251780845475E-02 -5.9292468730043E-03
139  1.3800000000000E+00 -6.5251390687069E-02 -2.5785718334883E-02
140  1.3900000000000E+00 -5.6928689055834E-02 -4.2095120121271E-02
141  1.4000000000000E+00 -4.9295764568590E-02 -5.5016442910146E-02
142  1.4100000000000E+00 -4.2354116902771E-02 -6.4740344126941E-02
143  1.4200000000000E+00 -3.6095377937947E-02 -7.1486220977784E-02
144  1.4300000000000E+00 -3.0502165011922E-02 -7.5498867452636E-02
145  1.4400000000000E+00 -2.5549052876047E-02 -7.7044760867558E-02
146  1.4500000000000E+00 -2.1203649007028E-02 -7.6408029761589E-02
147  1.4600000000000E+00 -1.7427755192789E-02 -7.3886160629498E-02
148  1.4700000000000E+00 -1.4178597496982E-02 -6.9785502758999E-02
149  1.4800000000000E+00 -1.1410104080670E-02 -6.4416640844016E-02
150  1.4900000000000E+00 -9.0742115519089E-03 -5.8089698463688E-02
151  1.5000000000000E+00 -7.1221787275139E-03 -5.1109642343736E-02
152  1.5100000000000E+00 -5.5058896139101E-03 -4.3771652942473E-02
153  1.5200000000000E+00 -4.1790961647403E-03 -3.6356692375623E-02
154  1.5300000000000E+00 -3.1004016777024E-03 -2.9123648108485E-02
155  1.5400000000000E+00 -2.2340075966620E-03 -2.2305797832590E-02
156  1.5500000000000E+00 -1.5447977429776E-03 -1.6119307485440E-02
157  1.5600000000000E+00 -1.0037742600971E-03 -1.0751386692601E-02
158  1.5700000000000E+00 -5.8897659576478E-04 -6.3571198368946E-03
159  1.5800000000000E+00 -2.8640747058778E-04 -3.0579680918895E-03
160  1.5900000000000E+00 -8.9287165497852E-05 -9.2687085265391E-04
161  1.6000000000000E+00 -5.7791646983357E-06 -5.7082386848775E-05
162  1.6100000000000E+00  1.2153535032754E-06  1.1861418616324E-05
163  1.6200000000000E+00 -3.6577206777988E-07 -3.6688383496346E-06
164  1.63  0.  0.
165  1.64  0. -0.
166  1.65  0.  0.
167  1.66  0.  0.
168  1.67  0.  0.
169  1.68  0.  0.
170  1.69  0.  0.
171  1.70  0.  0.
172  1.71  0.  0.
173  1.72  0.  0.
174  1.73  0.  0.
175  1.74  0.  0.
176  1.75  0.  0.
177  1.76  0.  0.
178  1.77  0.  0.
179  1.78  0.  0.