Tl    ONCVPSP-4.0.1  r_core=   2.16061   2.66382   2.01094   2.10952
81.0000     13.0000      220201    zatom,zion,pspd
8      11   3     4   600     0    pspcod,pspxc,lmax,lloc,mmax,r2well
5.99000000  7.00000000  0.00000000    rchrg fchrg qchrg
3     2     2     1     0    nproj
1     1           extension_switch
0                         1.4749022374101E+01  4.3476785691380E+00  7.7486951168826E-01
1  0.0000000000000E+00  8.9445321982407E-10 -9.8538205373089E-10  9.3492408259621E-10
2  1.0000000000000E-02 -1.2266911593664E-02  4.1944001139788E-02 -3.6232971790968E-02
3  2.0000000000000E-02 -2.4203362321208E-02  8.3497806034849E-02 -7.2099463938717E-02
4  3.0000000000000E-02 -3.5481968219124E-02  1.2427472541894E-01 -1.0723632852911E-01
5  4.0000000000000E-02 -4.5781472272336E-02  1.6389505395412E-01 -1.4128705247354E-01
6  5.0000000000000E-02 -5.4789740974724E-02  2.0198948737470E-01 -1.7390500357852E-01
7  6.0000000000000E-02 -6.2206681230512E-02  2.3820245054882E-01 -2.0475659166946E-01
8  7.0000000000000E-02 -6.7747052099974E-02  2.7219530792733E-01 -2.3352431755706E-01
9  8.0000000000000E-02 -7.1143146787359E-02  3.0364942883486E-01 -2.5990968357010E-01
10  9.0000000000000E-02 -7.2147321372866E-02  3.3226908127423E-01 -2.8363594053182E-01
11  1.0000000000000E-01 -7.0534348095146E-02  3.5778412935325E-01 -3.0445064742207E-01
12  1.1000000000000E-01 -6.6103572485145E-02  3.7995251108961E-01 -3.2212802152986E-01
13  1.2000000000000E-01 -5.8680855323821E-02  3.9856247519272E-01 -3.3647105865114E-01
14  1.3000000000000E-01 -4.8120282231492E-02  4.1343455744524E-01 -3.4731340480732E-01
15  1.4000000000000E-01 -3.4305625680347E-02  4.2442327949499E-01 -3.5452096303893E-01
16  1.5000000000000E-01 -1.7151546336913E-02  4.3141855520233E-01 -3.5799322104556E-01
17  1.6000000000000E-01  3.3954771288065E-03  4.3434679214952E-01 -3.5766428778235E-01
18  1.7000000000000E-01  2.7356498305301E-02  4.3317167848733E-01 -3.5350362956495E-01
19  1.8000000000000E-01  5.4719739508851E-02  4.2789464794725E-01 -3.4551649875762E-01
20  1.9000000000000E-01  8.5440518137868E-02  4.1855501856658E-01 -3.3374405070541E-01
21  2.0000000000000E-01  1.1944146409664E-01  4.0522980343177E-01 -3.1826314719647E-01
22  2.1000000000000E-01  1.5661302696404E-01  3.8803319452337E-01 -2.9918584738548E-01
23  2.2000000000000E-01  1.9681426908054E-01  3.6711572351862E-01 -2.7665858975132E-01
24  2.3000000000000E-01  2.3987393825241E-01  3.4266310615264E-01 -2.5086107127836E-01
25  2.4000000000000E-01  2.8559181134488E-01  3.1489477943391E-01 -2.2200483262258E-01
26  2.5000000000000E-01  3.3374029767946E-01  2.8406214363041E-01 -1.9033156052558E-01
27  2.6000000000000E-01  3.8406628888136E-01  2.5044652346927E-01 -1.5611112115491E-01
28  2.7000000000000E-01  4.3629323966357E-01  2.1435686540125E-01 -1.1963934035354E-01
29  2.8000000000000E-01  4.9012346200068E-01  1.7612719005516E-01 -8.1235548960226E-02
30  2.9000000000000E-01  5.4524061325774E-01  1.3611382112163E-01 -4.1239913391445E-02
31  3.0000000000000E-01  6.0131235711154E-01  9.4692413848844E-02 -1.0573544370812E-05
32  3.1000000000000E-01  6.5799317455064E-01  5.2254808082770E-02  4.2079388233126E-02
33  3.2000000000000E-01  7.1492730087970E-01  9.2057323282008E-03  8.4645121867046E-02
34  3.3000000000000E-01  7.7175176349342E-01 -3.4040613367533E-02  1.2729330145045E-01
35  3.4000000000000E-01  8.2809949424017E-01 -7.7064066815148E-02  1.6962550671431E-01
36  3.5000000000000E-01  8.8360248946890E-01 -1.1944207562231E-01  2.1124166564355E-01
37  3.6000000000000E-01  9.3789499035762E-01 -1.6075330132493E-01  2.5174352920507E-01
38  3.7000000000000E-01  9.9061665585767E-01 -2.0058122501686E-01  2.9073814879080E-01
39  3.8000000000000E-01  1.0414157005623E+00 -2.3851772369782E-01  3.2784132686451E-01
40  3.9000000000000E-01  1.0899519700190E+00 -2.7416658673139E-01  3.6268101143042E-01
41  4.0000000000000E-01  1.1358999264548E+00 -3.0714694223987E-01  3.9490060532264E-01
42  4.1000000000000E-01  1.1789515185649E+00 -3.3709656395196E-01  4.2416216193477E-01
43  4.2000000000000E-01  1.2188189099292E+00 -3.6367502996340E-01  4.5014943987485E-01
44  4.3000000000000E-01  1.2552370417553E+00 -3.8656670605908E-01  4.7257079012743E-01
45  4.4000000000000E-01  1.2879660069949E+00 -4.0548352767002E-01  4.9116185062896E-01
46  4.5000000000000E-01  1.3167932144353E+00 -4.2016755618859E-01  5.0568802470151E-01
47  4.6000000000000E-01  1.3415353231068E+00 -4.3039328722738E-01  5.1594672153307E-01
48  4.7000000000000E-01  1.3620399292728E+00 -4.3596969046615E-01  5.2176933882503E-01
49  4.8000000000000E-01  1.3781869903456E+00 -4.3674196297057E-01  5.2302296983473E-01
50  4.9000000000000E-01  1.3898899723003E+00 -4.3259298026766E-01  5.1961181930448E-01
51  5.0000000000000E-01  1.3970967095109E+00 -4.2344443200649E-01  5.1147831517186E-01
52  5.1000000000000E-01  1.3997899683881E+00 -4.0925763169676E-01  4.9860390547745E-01
53  5.2000000000000E-01  1.3979877087466E+00 -3.9003399278226E-01  4.8100953250760E-01
54  5.3000000000000E-01  1.3917430394323E+00 -3.6581516614442E-01  4.5875577890572E-01
55  5.4000000000000E-01  1.3811438673950E+00 -3.3668283702238E-01  4.3194268323736E-01
56  5.5000000000000E-01  1.3663122420566E+00 -3.0275818225471E-01  4.0070922527711E-01
57  5.6000000000000E-01  1.3474033994950E+00 -2.6420099166711E-01  3.6523248407413E-01
58  5.7000000000000E-01  1.3246045135984E+00 -2.2120846032988E-01  3.2572647462966E-01
59  5.8000000000000E-01  1.2981331639389E+00 -1.7401366125736E-01  2.8244067175188E-01
60  5.9000000000000E-01  1.2682355326262E+00 -1.2288371090075E-01  2.3565823232824E-01
61  6.0000000000000E-01  1.2351843448288E+00 -6.8117642465836E-02  1.8569392983966E-01
62  6.1000000000000E-01  1.1992765699545E+00 -1.0044004649091E-02  1.3289181742045E-01
63  6.2000000000000E-01  1.1608309026513E+00  5.0981794197354E-02  7.7622638114902E-02
64  6.3000000000000E-01  1.1201850448032E+00  1.1458037420596E-01  2.0281003181103E-02
65  6.4000000000000E-01  1.0776928115359E+00  1.8035148010458E-01 -3.8717638679547E-02
66  6.5000000000000E-01  1.0337210858888E+00  2.4787725909736E-01 -9.8940216448487E-02
67  6.6000000000000E-01  9.8864664825485E-01  3.1672569266861E-01 -1.5993940991535E-01
68  6.7000000000000E-01  9.4285290790410E-01  3.8645415305221E-01 -2.2125715302859E-01
69  6.8000000000000E-01  8.9672656489314E-01  4.5661305394942E-01 -2.8242823851368E-01
70  6.9000000000000E-01  8.5065423140642E-01  5.2674956417457E-01 -3.4298399385609E-01
71  7.0000000000000E-01  8.0501904206519E-01  5.9641135227876E-01 -4.0245599805980E-01
72  7.1000000000000E-01  7.6019728297698E-01  6.6515032984390E-01 -4.6037980815846E-01
73  7.2000000000000E-01  7.1655506927209E-01  7.3252636106608E-01 -5.1629866429311E-01
74  7.3000000000000E-01  6.7444510058882E-01  7.9811090645259E-01 -5.6976714226844E-01
75  7.4000000000000E-01  6.3420352342172E-01  8.6149056894687E-01 -6.2035472286769E-01
76  7.5000000000000E-01  5.9614692844366E-01  9.2227051156363E-01 -6.6764924783949E-01
77  7.6000000000000E-01  5.6056950985810E-01  9.8007771665644E-01 -7.1126023335999E-01
78  7.7000000000000E-01  5.2774041253772E-01  1.0345640582488E+00 -7.5082201292251E-01
79  7.8000000000000E-01  4.9790129117433E-01  1.0854091604205E+00 -7.8599668299646E-01
80  7.9000000000000E-01  4.7126410391015E-01  1.1323230165462E+00 -8.1647682642183E-01
81  8.0000000000000E-01  4.4800916095890E-01  1.1750483462178E+00 -8.4198799035228E-01
82  8.1000000000000E-01  4.2828344657291E-01  1.2133626689235E+00 -8.6229089760885E-01
83  8.2000000000000E-01  4.1219923038594E-01  1.2470800759962E+00 -8.7718337254571E-01
84  8.3000000000000E-01  3.9983298168135E-01  1.2760526849487E+00 -8.8650196493827E-01
85  8.4000000000000E-01  3.9122459752309E-01  1.3001717630747E+00 -8.9012325796027E-01
86  8.5000000000000E-01  3.8637695296344E-01  1.3193685100723E+00 -8.8796484900158E-01
87  8.6000000000000E-01  3.8525577873212E-01  1.3336144924365E+00 -8.7998599486743E-01
88  8.7000000000000E-01  3.8778986893876E-01  1.3429217254209E+00 -8.6618791576850E-01
89  8.8000000000000E-01  3.9387161841135E-01  1.3473424014773E+00 -8.4661375543656E-01
90  8.9000000000000E-01  4.0335788637292E-01  1.3469682672071E+00 -8.2134819765282E-01
91  9.0000000000000E-01  4.1607118025080E-01  1.3419296539790E+00 -7.9051674243704E-01
92  9.1000000000000E-01  4.3180115054746E-01  1.3323941704491E+00 -7.5428464808024E-01
93  9.2000000000000E-01  4.5030638490200E-01  1.3185650682418E+00 -7.1285554809071E-01
94  9.3000000000000E-01  4.7131648676089E-01  1.3006792949803E+00 -6.6646975494207E-01
95  9.4000000000000E-01  4.9453442148619E-01  1.2790052516679E+00 -6.1540226522326E-01
96  9.5000000000000E-01  5.1963911027470E-01  1.2538402740934E+00 -5.5996048338722E-01
97  9.6000000000000E-01  5.4628824997338E-01  1.2255078604382E+00 -5.0048168373898E-01
98  9.7000000000000E-01  5.7412133476867E-01  1.1943546695734E+00 -4.3733023258442E-01
99  9.8000000000000E-01  6.0276285382690E-01  1.1607473166408E+00 -3.7089459454762E-01
100  9.9000000000000E-01  6.3182563728162E-01  1.1250689943780E+00 -3.0158414894764E-01
101  1.0000000000000E+00  6.6091432152341E-01  1.0877159502684E+00 -2.2982584377828E-01
102  1.0100000000000E+00  6.8962890355764E-01  1.0490938509536E+00 -1.5606071625039E-01
103  1.0200000000000E+00  7.1756835327173E-01  1.0096140664186E+00 -8.0740310014151E-02
104  1.0300000000000E+00  7.4433425180331E-01  9.6968990725083E-01 -4.3230200741118E-03
105  1.0400000000000E+00  7.6953442383166E-01  9.2973284875747E-01  7.2729602970003E-02
106  1.0500000000000E+00  7.9278653153332E-01  8.9014877591661E-01  1.4995655738496E-01
107  1.0600000000000E+00  8.1372159814836E-01  8.5133428301199E-01  2.2690107143907E-01
108  1.0700000000000E+00  8.3198742959824E-01  8.1367306137682E-01  3.0311422941100E-01
109  1.0800000000000E+00  8.4725190337730E-01  7.7753240793776E-01  3.7815851118742E-01
110  1.0900000000000E+00  8.5920609499594E-01  7.4325988622396E-01  4.5161121495434E-01
111  1.1000000000000E+00  8.6756721358860E-01  7.1118017018141E-01  5.2306773355725E-01
112  1.1100000000000E+00  8.7208131988553E-01  6.8159209953861E-01  5.9214465643106E-01
113  1.1200000000000E+00  8.7252580159094E-01  6.5476597359994E-01  6.5848267058782E-01
114  1.1300000000000E+00  8.6871158327677E-01  6.3094110823156E-01  7.2174923596991E-01
115  1.1400000000000E+00  8.6048505018948E-01  6.1032367845587E-01  7.8164101252246E-01
116  1.1500000000000E+00  8.4772966784364E-01  5.9308486651623E-01  8.3788601858689E-01
117  1.1600000000000E+00  8.3036728193332E-01  5.7935933252423E-01  8.9024550265482E-01
118  1.1700000000000E+00  8.0835908588758E-01  5.6924402189961E-01  9.3851551311261E-01
119  1.1800000000000E+00  7.8170624633437E-01  5.6279732075562E-01  9.8252815335277E-01
120  1.1900000000000E+00  7.5045017974898E-01  5.6003856724068E-01  1.0221525124659E+00
121  1.2000000000000E+00  7.1467247667778E-01  5.6094792359161E-01  1.0572952646824E+00
122  1.2100000000000E+00  6.7449447305429E-01  5.6546661037932E-01  1.0879009337196E+00
123  1.2200000000000E+00  6.3007647129273E-01  5.7349750110505E-01  1.1139518212367E+00
124  1.2300000000000E+00  5.8161661698631E-01  5.8490607200204E-01  1.1354676016401E+00
125  1.2400000000000E+00  5.2934944013197E-01  5.9952169864263E-01  1.1525045884972E+00
126  1.2500000000000E+00  4.7354407284940E-01  6.1713928773789E-01  1.1651546808005E+00
127  1.2600000000000E+00  4.1450215848188E-01  6.3752122943624E-01  1.1735440002087E+00
128  1.2700000000000E+00  3.5255546978135E-01  6.6039965244978E-01  1.1778312331909E+00
129  1.2800000000000E+00  2.8806325653811E-01  6.8547896152291E-01  1.1782056946606E+00
130  1.2900000000000E+00  2.2140934548920E-01  7.1243863413273E-01  1.1748851321964E+00
131  1.3000000000000E+00  1.5299901762378E-01  7.4093625088208E-01  1.1681132922749E+00
132  1.3100000000000E+00  8.3255690063098E-02  7.7061073185239E-01  1.1581572720783E+00
133  1.3200000000000E+00  1.2617431507794E-02  8.0108574924282E-01  1.1453046823496E+00
134  1.3300000000000E+00 -5.8466658195596E-02  8.3197328495065E-01  1.1298606484413E+00
135  1.3400000000000E+00 -1.2954017252879E-01  8.6287730035881E-01  1.1121446781311E+00
136  1.3500000000000E+00 -2.0014319397872E-01  8.9339748451206E-01  1.0924874259319E+00
137  1.3600000000000E+00 -2.6981612737810E-01  9.2313304609099E-01  1.0712273844976E+00
138  1.3700000000000E+00 -3.3810353696764E-01  9.5168651413310E-01  1.0487075343258E+00
139  1.3800000000000E+00 -4.0455795314931E-01  9.7866751232178E-01  1.0252719832524E+00
140  1.3900000000000E+00 -4.6874361511844E-01  1.0036964718587E+00  1.0012626272418E+00
141  1.4000000000000E+00 -5.3024011609020E-01  1.0264082484552E+00  9.7701586368473E-01
142  1.4100000000000E+00 -5.8864591866628E-01  1.0464556098192E+00  9.5285938783625E-01
143  1.4200000000000E+00 -6.4358170902163E-01  1.0635125611716E+00  9.2910910215300E-01
144  1.4300000000000E+00 -6.9469356000659E-01  1.0772774777888E+00  9.0606616714305E-01
145  1.4400000000000E+00 -7.4165587495466E-01  1.0874760153139E+00  8.8401422092236E-01
146  1.4500000000000E+00 -7.8417408594545E-01  1.0938637706190E+00  8.6321679299582E-01
147  1.4600000000000E+00 -8.2198708245924E-01  1.0962286682687E+00  8.4391493587727E-01
148  1.4700000000000E+00 -8.5486934879700E-01  1.0943930501769E+00  8.2632509601542E-01
149  1.4800000000000E+00 -8.8263279125289E-01  1.0882154487721E+00  8.1063724316322E-01
150  1.4900000000000E+00 -9.0512823883130E-01  1.0775920269170E+00  7.9701327481004E-01
151  1.5000000000000E+00 -9.2224660425435E-01  1.0624576709124E+00  7.8558570962172E-01
152  1.5100000000000E+00 -9.3391969508311E-01  1.0427867261343E+00  7.7645668103200E-01
153  1.5200000000000E+00 -9.4012066795946E-01  1.0185933681850E+00  7.6969723921201E-01
154  1.5300000000000E+00 -9.4086412220130E-01  9.8993160581286E-01  7.6534696667708E-01
155  1.5400000000000E+00 -9.3620583228806E-01  9.5689491531792E-01  7.6341390973370E-01
156  1.5500000000000E+00 -9.2624212204560E-01  9.1961550958539E-01  7.6387482493141E-01
157  1.5600000000000E+00 -9.1110888661175E-01  8.7826324831732E-01  7.6667573663341E-01
158  1.5700000000000E+00 -8.9098027147460E-01  8.3304419939586E-01  7.7173279881404E-01
159  1.5800000000000E+00 -8.6606702100458E-01  7.8419886458853E-01  7.7893345125133E-01
160  1.5900000000000E+00 -8.3661451191802E-01  7.3200008596491E-01  7.8813785743680E-01
161  1.6000000000000E+00 -8.0290048998543E-01  6.7675065240432E-01  7.9918060880138E-01
162  1.6100000000000E+00 -7.6523253100621E-01  6.1878062840763E-01  8.1187267728024E-01
163  1.6200000000000E+00 -7.2394524958721E-01  5.5844443005681E-01  8.2600359583561E-01
164  1.6300000000000E+00 -6.7939728156264E-01  4.9611767536790E-01  8.4134384434645E-01
165  1.6400000000000E+00 -6.3196806795348E-01  4.3219383843256E-01  8.5764741628395E-01
166  1.6500000000000E+00 -5.8205447017043E-01  3.6708073862297E-01  8.7465453983179E-01
167  1.6600000000000E+00 -5.3006724769451E-01  3.0119689772324E-01  8.9209452560647E-01
168  1.6700000000000E+00 -4.7642743071227E-01  2.3496779913457E-01  9.0968871189336E-01
169  1.6800000000000E+00 -4.2156262112551E-01  1.6882208426873E-01  9.2715347735218E-01
170  1.6900000000000E+00 -3.6590325598873E-01  1.0318772188340E-01  9.4420329047416E-01
171  1.7000000000000E+00 -3.0987886774772E-01  3.8488186421651E-02  9.6055376469032E-01
172  1.7100000000000E+00 -2.5391437565380E-01 -2.4861318612407E-02  9.7592468794989E-01
173  1.7200000000000E+00 -1.9842644241326E-01 -8.6457556572957E-02  9.9004299580116E-01
174  1.7300000000000E+00 -1.4381992950083E-01 -1.4591283791657E-01  1.0026456575194E+00
175  1.7400000000000E+00 -9.0484483627751E-02 -2.0285845082363E-01  1.0134824456272E+00
176  1.7500000000000E+00 -3.8791285616656E-02 -2.5694790959080E-01  1.0223185602398E+00
177  1.7600000000000E+00  1.0910008590450E-02 -3.0785998983251E-01  1.0289370810219E+00
178  1.7700000000000E+00  5.8294106864407E-02 -3.5530152146384E-01  1.0331412211652E+00
179  1.7800000000000E+00  1.0306267388707E-01 -3.9900991261326E-01  1.0347563593495E+00
180  1.7900000000000E+00  1.4494665462336E-01 -4.3875538006604E-01  1.0336318281422E+00
181  1.8000000000000E+00  1.8370830746984E-01 -4.7434286633309E-01  1.0296424558376E+00
182  1.8100000000000E+00  2.1914292746645E-01 -5.0561361497111E-01  1.0226897482108E+00
183  1.8200000000000E+00  2.5108025197439E-01 -5.3244645442928E-01  1.0127033937232E+00
184  1.8300000000000E+00  2.7938554921088E-01 -5.5475882053793E-01  9.9964322524421E-01
185  1.8400000000000E+00  3.0396037614974E-01 -5.7250741835395E-01  9.8350046772227E-01
186  1.8500000000000E+00  3.2474298878963E-01 -5.8568846389608E-01  9.6429796082652E-01
187  1.8600000000000E+00  3.4170840529665E-01 -5.9433756127396E-01  9.4209013653816E-01
188  1.8700000000000E+00  3.5486812236989E-01 -5.9852921039969E-01  9.1696266739074E-01
189  1.8800000000000E+00  3.6426948853344E-01 -5.9837595057326E-01  8.8903180318679E-01
190  1.8900000000000E+00  3.6999474121865E-01 -5.9402714770671E-01  8.5844340208176E-01
191  1.9000000000000E+00  3.7215971758650E-01 -5.8566743617225E-01  8.2537166442883E-01
192  1.9100000000000E+00  3.7091225198951E-01 -5.7351482941649E-01  7.9001758087452E-01
193  1.9200000000000E+00  3.6643027584393E-01 -5.5781851652408E-01  7.5260710884700E-01
194  1.9300000000000E+00  3.5891963838685E-01 -5.3885636478014E-01  7.1338909410580E-01
195  1.9400000000000E+00  3.4861166932932E-01 -5.1693215097327E-01  6.7263295643921E-01
196  1.9500000000000E+00  3.3576050675445E-01 -4.9237254665949E-01  6.3062616080975E-01
197  1.9600000000000E+00  3.2064021575746E-01 -4.6552388488004E-01  5.8767149725589E-01
198  1.9700000000000E+00  3.0354172514033E-01 -4.3674873774530E-01  5.4408419456549E-01
199  1.9800000000000E+00  2.8476961121693E-01 -4.0642233615034E-01  5.0018889446911E-01
200  1.9900000000000E+00  2.6463875906817E-01 -3.7492886423167E-01  4.5631651424688E-01
201  2.0000000000000E+00  2.4347093271229E-01 -3.4265766236762E-01  4.1280102677599E-01
202  2.0100000000000E+00  2.2159128645077E-01 -3.0999937335750E-01  3.6997618780944E-01
203  2.0200000000000E+00  1.9932486232659E-01 -2.7734207841994E-01  3.2817224857964E-01
204  2.0300000000000E+00  1.7699296684079E-01 -2.4506732534243E-01  2.8771259172978E-01
205  2.0400000000000E+00  1.5491008642938E-01 -2.1354668830786E-01  2.4891075507583E-01
206  2.0500000000000E+00  1.3337990944983E-01 -1.8313744385882E-01  2.1206676801753E-01
207  2.0600000000000E+00  1.1268480622471E-01 -1.5417224711377E-01  1.7745968046694E-01
208  2.0700000000000E+00  9.3083205982315E-02 -1.2695635937246E-01  1.4534539430756E-01
209  2.0800000000000E+00  7.4834666721980E-02 -1.0179076558980E-01  1.1597171045259E-01
210  2.0900000000000E+00  5.8177140878844E-02 -7.8949921754529E-02  8.9561984670776E-02
211  2.1000000000000E+00  4.3321500667965E-02 -5.8676184367312E-02  6.6310808106938E-02
212  2.1100000000000E+00  3.0450210191447E-02 -4.1178270155322E-02  4.6382617275082E-02
213  2.1200000000000E+00  1.9715034858427E-02 -2.6628805670929E-02  2.9909664097246E-02
214  2.1300000000000E+00  1.1239612373302E-02 -1.5168298050217E-02  1.6996998857120E-02
215  2.1400000000000E+00  5.0714898906735E-03 -6.8408110381014E-03  7.6511993397285E-03
216  2.1500000000000E+00  1.3841488921504E-03 -1.8668117456149E-03  2.0849646254330E-03
217  2.1600000000000E+00  2.9300765277337E-05 -3.9590780877504E-05  4.4330328888482E-05
218  2.1700000000000E+00 -5.7108520613387E-05  7.6994461152670E-05 -8.5773863906784E-05
219  2.1800000000000E+00  2.9396384093417E-05 -3.9629371526349E-05  4.4188274349554E-05
220  2.19 -0.  0. -0.
221  2.20 -0.  0. -0.
222  2.21 -0.  0. -0.
223  2.22  0.  0.  0.
224  2.23  0.  0.  0.
225  2.24  0.  0.  0.
226  2.25  0.  0.  0.
227  2.26  0.  0.  0.
228  2.27  0.  0.  0.
229  2.28  0.  0.  0.
230  2.29  0.  0.  0.
231  2.30  0.  0.  0.
232  2.31  0.  0.  0.
233  2.32  0.  0.  0.
234  2.33  0.  0.  0.
235  2.34  0.  0.  0.
236  2.35  0.  0.  0.
237  2.36  0.  0.  0.
238  2.37  0.  0.  0.
239  2.38  0.  0.  0.
240  2.39  0.  0.  0.
241  2.40  0.  0.  0.
242  2.41  0.  0.  0.
243  2.42  0.  0.  0.
244  2.43  0.  0.  0.
245  2.44  0.  0.  0.
246  2.45  0.  0.  0.
247  2.46  0.  0.  0.
248  2.47  0.  0.  0.
249  2.48  0.  0.  0.
250  2.49  0.  0.  0.
251  2.50  0.  0.  0.
252  2.51  0.  0.  0.
253  2.52  0.  0.  0.
254  2.53  0.  0.  0.
255  2.54  0.  0.  0.
256  2.55  0.  0.  0.
257  2.56  0.  0.  0.
258  2.57  0.  0.  0.
259  2.58  0.  0.  0.
260  2.59  0.  0.  0.
261  2.60  0.  0.  0.
262  2.61  0.  0.  0.
263  2.62  0.  0.  0.
264  2.63  0.  0.  0.
265  2.64  0.  0.  0.
266  2.65  0.  0.  0.
267  2.66  0.  0.  0.
268  2.67  0.  0.  0.
269  2.68  0.  0.  0.
270  2.69  0.  0.  0.
271  2.70  0.  0.  0.
272  2.71  0.  0.  0.
273  2.72  0.  0.  0.
274  2.73  0.  0.  0.
275  2.74  0.  0.  0.
276  2.75  0.  0.  0.
277  2.76  0.  0.  0.
278  2.77  0.  0.  0.
279  2.78  0.  0.  0.
280  2.79  0.  0.  0.
281  2.80  0.  0.  0.
282  2.81  0.  0.  0.
283  2.82  0.  0.  0.
284  2.83  0.  0.  0.
285  2.84  0.  0.  0.
286  2.85  0.  0.  0.
287  2.86  0.  0.  0.
288  2.87  0.  0.  0.
289  2.88  0.  0.  0.
290  2.89  0.  0.  0.
291  2.90  0.  0.  0.
292  2.91  0.  0.  0.
293  2.92  0.  0.  0.
294  2.93  0.  0.  0.
295  2.94  0.  0.  0.
296  2.95  0.  0.  0.
297  2.96  0.  0.  0.
298  2.97  0.  0.  0.
299  2.98  0.  0.  0.
300  2.99  0.  0.  0.
301  3.00  0.  0.  0.
302  3.01  0.  0.  0.
303  3.02  0.  0.  0.
304  3.03  0.  0.  0.
305  3.04  0.  0.  0.
306  3.05  0.  0.  0.
307  3.06  0.  0.  0.
308  3.07  0.  0.  0.
309  3.08  0.  0.  0.
310  3.09  0.  0.  0.
311  3.10  0.  0.  0.
312  3.11  0.  0.  0.
313  3.12  0.  0.  0.
314  3.13  0.  0.  0.
315  3.14  0.  0.  0.
316  3.15  0.  0.  0.
317  3.16  0.  0.  0.
318  3.17  0.  0.  0.
319  3.18  0.  0.  0.
320  3.19  0.  0.  0.
321  3.20  0.  0.  0.
322  3.21  0.  0.  0.
323  3.22  0.  0.  0.
324  3.23  0.  0.  0.
325  3.24  0.  0.  0.
326  3.25  0.  0.  0.
327  3.26  0.  0.  0.
328  3.27  0.  0.  0.
329  3.28  0.  0.  0.
330  3.29  0.  0.  0.
331  3.30  0.  0.  0.
332  3.31  0.  0.  0.
333  3.32  0.  0.  0.
334  3.33  0.  0.  0.
335  3.34  0.  0.  0.
336  3.35  0.  0.  0.
337  3.36  0.  0.  0.
338  3.37  0.  0.  0.
339  3.38  0.  0.  0.
340  3.39  0.  0.  0.
341  3.40  0.  0.  0.
342  3.41  0.  0.  0.
343  3.42  0.  0.  0.
344  3.43  0.  0.  0.
345  3.44  0.  0.  0.
346  3.45  0.  0.  0.
347  3.46  0.  0.  0.
348  3.47  0.  0.  0.
349  3.48  0.  0.  0.
350  3.49  0.  0.  0.
351  3.50  0.  0.  0.
352  3.51  0.  0.  0.
353  3.52  0.  0.  0.
354  3.53  0.  0.  0.
355  3.54  0.  0.  0.
356  3.55  0.  0.  0.
357  3.56  0.  0.  0.
358  3.57  0.  0.  0.
359  3.58  0.  0.  0.
360  3.59  0.  0.  0.
361  3.60  0.  0.  0.
362  3.61  0.  0.  0.
363  3.62  0.  0.  0.
364  3.63  0.  0.  0.
365  3.64  0.  0.  0.
366  3.65  0.  0.  0.
367  3.66  0.  0.  0.
368  3.67  0.  0.  0.
369  3.68  0.  0.  0.
370  3.69  0.  0.  0.
371  3.70  0.  0.  0.
372  3.71  0.  0.  0.
373  3.72  0.  0.  0.
374  3.73  0.  0.  0.
375  3.74  0.  0.  0.
376  3.75  0.  0.  0.
377  3.76  0.  0.  0.
378  3.77  0.  0.  0.
379  3.78  0.  0.  0.
380  3.79  0.  0.  0.
381  3.80  0.  0.  0.
382  3.81  0.  0.  0.
383  3.82  0.  0.  0.
384  3.83  0.  0.  0.
385  3.84  0.  0.  0.
386  3.85  0.  0.  0.
387  3.86  0.  0.  0.
388  3.87  0.  0.  0.
389  3.88  0.  0.  0.
390  3.89  0.  0.  0.
391  3.90  0.  0.  0.
392  3.91  0.  0.  0.
393  3.92  0.  0.  0.
394  3.93  0.  0.  0.
395  3.94  0.  0.  0.
396  3.95  0.  0.  0.
397  3.96  0.  0.  0.
398  3.97  0.  0.  0.
399  3.98  0.  0.  0.
400  3.99  0.  0.  0.
401  4.00  0.  0.  0.
402  4.01  0.  0.  0.
403  4.02  0.  0.  0.
404  4.03  0.  0.  0.
405  4.04  0.  0.  0.
406  4.05  0.  0.  0.
407  4.06  0.  0.  0.
408  4.07  0.  0.  0.
409  4.08  0.  0.  0.
410  4.09  0.  0.  0.
411  4.10  0.  0.  0.
412  4.11  0.  0.  0.
413  4.12  0.  0.  0.
414  4.13  0.  0.  0.
415  4.14  0.  0.  0.
416  4.15  0.  0.  0.
417  4.16  0.  0.  0.
418  4.17  0.  0.  0.
419  4.18  0.  0.  0.
420  4.19  0.  0.  0.
421  4.20  0.  0.  0.
422  4.21  0.  0.  0.
423  4.22  0.  0.  0.
424  4.23  0.  0.  0.
425  4.24  0.  0.  0.
426  4.25  0.  0.  0.
427  4.26  0.  0.  0.
428  4.27  0.  0.  0.
429  4.28  0.  0.  0.
430  4.29  0.  0.  0.
431  4.30  0.  0.  0.
432  4.31  0.  0.  0.
433  4.32  0.  0.  0.
434  4.33  0.  0.  0.
435  4.34  0.  0.  0.
436  4.35  0.  0.  0.
437  4.36  0.  0.  0.
438  4.37  0.  0.  0.
439  4.38  0.  0.  0.
440  4.39  0.  0.  0.
441  4.40  0.  0.  0.
442  4.41  0.  0.  0.
443  4.42  0.  0.  0.
444  4.43  0.  0.  0.
445  4.44  0.  0.  0.
446  4.45  0.  0.  0.
447  4.46  0.  0.  0.
448  4.47  0.  0.  0.
449  4.48  0.  0.  0.
450  4.49  0.  0.  0.
451  4.50  0.  0.  0.
452  4.51  0.  0.  0.
453  4.52  0.  0.  0.
454  4.53  0.  0.  0.
455  4.54  0.  0.  0.
456  4.55  0.  0.  0.
457  4.56  0.  0.  0.
458  4.57  0.  0.  0.
459  4.58  0.  0.  0.
460  4.59  0.  0.  0.
461  4.60  0.  0.  0.
462  4.61  0.  0.  0.
463  4.62  0.  0.  0.
464  4.63  0.  0.  0.
465  4.64  0.  0.  0.
466  4.65  0.  0.  0.
467  4.66  0.  0.  0.
468  4.67  0.  0.  0.
469  4.68  0.  0.  0.
470  4.69  0.  0.  0.
471  4.70  0.  0.  0.
472  4.71  0.  0.  0.
473  4.72  0.  0.  0.
474  4.73  0.  0.  0.
475  4.74  0.  0.  0.
476  4.75  0.  0.  0.
477  4.76  0.  0.  0.
478  4.77  0.  0.  0.
479  4.78  0.  0.  0.
480  4.79  0.  0.  0.
481  4.80  0.  0.  0.
482  4.81  0.  0.  0.
483  4.82  0.  0.  0.
484  4.83  0.  0.  0.
485  4.84  0.  0.  0.
486  4.85  0.  0.  0.
487  4.86  0.  0.  0.
488  4.87  0.  0.  0.
489  4.88  0.  0.  0.
490  4.89  0.  0.  0.
491  4.90  0.  0.  0.
492  4.91  0.  0.  0.
493  4.92  0.  0.  0.
494  4.93  0.  0.  0.
495  4.94  0.  0.  0.
496  4.95  0.  0.  0.
497  4.96  0.  0.  0.
498  4.97  0.  0.  0.
499  4.98  0.  0.  0.
500  4.99  0.  0.  0.
501  5.00  0.  0.  0.
502  5.01  0.  0.  0.
503  5.02  0.  0.  0.
504  5.03  0.  0.  0.
505  5.04  0.  0.  0.
506  5.05  0.  0.  0.
507  5.06  0.  0.  0.
508  5.07  0.  0.  0.
509  5.08  0.  0.  0.
510  5.09  0.  0.  0.
511  5.10  0.  0.  0.
512  5.11  0.  0.  0.
513  5.12  0.  0.  0.
514  5.13  0.  0.  0.
515  5.14  0.  0.  0.
516  5.15  0.  0.  0.
517  5.16  0.  0.  0.
518  5.17  0.  0.  0.
519  5.18  0.  0.  0.
520  5.19  0.  0.  0.
521  5.20  0.  0.  0.
522  5.21  0.  0.  0.
523  5.22  0.  0.  0.
524  5.23  0.  0.  0.
525  5.24  0.  0.  0.
526  5.25  0.  0.  0.
527  5.26  0.  0.  0.
528  5.27  0.  0.  0.
529  5.28  0.  0.  0.
530  5.29  0.  0.  0.
531  5.30  0.  0.  0.
532  5.31  0.  0.  0.
533  5.32  0.  0.  0.
534  5.33  0.  0.  0.
535  5.34  0.  0.  0.
536  5.35  0.  0.  0.
537  5.36  0.  0.  0.
538  5.37  0.  0.  0.
539  5.38  0.  0.  0.
540  5.39  0.  0.  0.
541  5.40  0.  0.  0.
542  5.41  0.  0.  0.
543  5.42  0.  0.  0.
544  5.43  0.  0.  0.
545  5.44  0.  0.  0.
546  5.45  0.  0.  0.
547  5.46  0.  0.  0.
548  5.47  0.  0.  0.
549  5.48  0.  0.  0.
550  5.49  0.  0.  0.
551  5.50  0.  0.  0.
552  5.51  0.  0.  0.
553  5.52  0.  0.  0.
554  5.53  0.  0.  0.
555  5.54  0.  0.  0.
556  5.55  0.  0.  0.
557  5.56  0.  0.  0.
558  5.57  0.  0.  0.
559  5.58  0.  0.  0.
560  5.59  0.  0.  0.
561  5.60  0.  0.  0.
562  5.61  0.  0.  0.
563  5.62  0.  0.  0.
564  5.63  0.  0.  0.
565  5.64  0.  0.  0.
566  5.65  0.  0.  0.
567  5.66  0.  0.  0.
568  5.67  0.  0.  0.
569  5.68  0.  0.  0.
570  5.69  0.  0.  0.
571  5.70  0.  0.  0.
572  5.71  0.  0.  0.
573  5.72  0.  0.  0.
574  5.73  0.  0.  0.
575  5.74  0.  0.  0.
576  5.75  0.  0.  0.
577  5.76  0.  0.  0.
578  5.77  0.  0.  0.
579  5.78  0.  0.  0.
580  5.79  0.  0.  0.
581  5.80  0.  0.  0.
582  5.81  0.  0.  0.
583  5.82  0.  0.  0.
584  5.83  0.  0.  0.
585  5.84  0.  0.  0.
586  5.85  0.  0.  0.
587  5.86  0.  0.  0.
588  5.87  0.  0.  0.
589  5.88  0.  0.  0.
590  5.89  0.  0.  0.
591  5.90  0.  0.  0.
592  5.91  0.  0.  0.
593  5.92  0.  0.  0.
594  5.93  0.  0.  0.
595  5.94  0.  0.  0.
596  5.95  0.  0.  0.
597  5.96  0.  0.  0.
598  5.97  0.  0.  0.
599  5.98  0.  0.  0.
600  5.99  0.  0.  0.
1                         5.1033435404747E+00  8.8269114949902E-01
1  0.0000000000000E+00  3.7089938759172E-11 -5.4557355161355E-11
2  1.0000000000000E-02  4.3719492189057E-04 -2.4845780962647E-04
3  2.0000000000000E-02  1.7475500009879E-03 -9.9256203964755E-04
4  3.0000000000000E-02  3.9273810367886E-03 -2.2285113442786E-03
5  4.0000000000000E-02  6.9705638735191E-03 -3.9499909551298E-03
6  5.0000000000000E-02  1.0868558601297E-02 -6.1482037950099E-03
7  6.0000000000000E-02  1.5610443305083E-02 -8.8119138414378E-03
8  7.0000000000000E-02  2.1182957229230E-02 -1.1927501544901E-02
9  8.0000000000000E-02  2.7570553188330E-02 -1.5479031052342E-02
10  9.0000000000000E-02  3.4755459018511E-02 -1.9448328932749E-02
11  1.0000000000000E-01  4.2717747827328E-02 -2.3815074049141E-02
12  1.1000000000000E-01  5.1435416765225E-02 -2.8556898169959E-02
13  1.2000000000000E-01  6.0884474007126E-02 -3.3649496863051E-02
14  1.3000000000000E-01  7.1039033599336E-02 -3.9066750167285E-02
15  1.4000000000000E-01  8.1871417794580E-02 -4.4780852490460E-02
16  1.5000000000000E-01  9.3352266466852E-02 -5.0762451137927E-02
17  1.6000000000000E-01  1.0545065316794E-01 -5.6980792834204E-02
18  1.7000000000000E-01  1.1813420735899E-01 -6.3403877560157E-02
19  1.8000000000000E-01  1.3136924232359E-01 -6.9998618991203E-02
20  1.9000000000000E-01  1.4512088824356E-01 -7.6731010787500E-02
21  2.0000000000000E-01  1.5935322989506E-01 -8.3566297955599E-02
22  2.1000000000000E-01  1.7402944840092E-01 -9.0469152472503E-02
23  2.2000000000000E-01  1.8911196645524E-01 -9.7403852337799E-02
24  2.3000000000000E-01  2.0456259641869E-01 -1.0433446319754E-01
25  2.4000000000000E-01  2.2034269066718E-01 -1.1122502166509E-01
26  2.5000000000000E-01  2.3641329356335E-01 -1.1803971944919E-01
27  2.6000000000000E-01  2.5273529440895E-01 -1.2474308738837E-01
28  2.7000000000000E-01  2.6926958072787E-01 -1.3130017848354E-01
29  2.8000000000000E-01  2.8597719122308E-01 -1.3767674901677E-01
30  2.9000000000000E-01  3.0281946774713E-01 -1.4383943684546E-01