<?xml version="1.0" encoding="UTF-8" ?>
<psml version="1.1" energy_unit="hartree" length_unit="bohr"
 uuid="8fcd9c70-c73e-11ed-6212-e9e8f36f3985"
 xmlns="http://esl.cecam.org/PSML/ns/1.1">
<provenance creator="ONCVPSP-4.0.1+psml-4.0.1-76 (scalar-relativistic)"
 date="2023-03-20">
<annotation action="semilocal-pseudopotential-generation"
 action-cont="projectors-generation" />
<input-file name="oncvpsp-input">
<![CDATA[# atsym z nc nv iexc psfile
Tl 81 12 3 4 both
# n l f
1 0 2.0
2 0 2.0
2 1 6.0
3 0 2.0
3 1 6.0
3 2 10.0
4 0 2.0
4 1 6.0
4 2 10.0
5 0 2.0
5 1 6.0
4 3 14.0
5 2 10.0
6 0 2.0
6 1 1.0
# lmax
3
# l rc ep ncon nbas qcut
0 2.15 0.0 4 7 2.9
1 2.65 0.0 4 7 2.6
2 2.0 0.0 4 8 7.4
3 2.1 0.05 4 7 6.0
# lloc lpopt rc5 dvloc0
4 5 1.8 0.0
# l nproj debl
#0 2 5.6
0 3 2.6
1 2 3.1
2 2 1.0
3 1 1.0
# icmod fcfact
3 7.0 1.3
# epsh1 epsh2 depsh
-12.0 12.0 0.02
# rlmax drl
6.0 0.01
 0
]]>
</input-file>
</provenance>
<pseudo-atom-spec atomic-label="Tl" atomic-number="81" z-pseudo="13"
 flavor="Hamann&apos;s oncvpsp" relativity="scalar" spin-dft="no"
 core-corrections="yes">
<annotation pseudo-energy="-50.6601289012" cutoff_hint_low="52"
 cutoff_hint_normal="55" cutoff_hint_high="65" />
<exchange-correlation>
<annotation oncvpsp-xc-code="4" oncvpsp-xc-type="GGA -- Perdew-Burke-Ernzerhof" />
<libxc-info number-of-functionals="2">
<functional name="Perdew, Burke &amp; Ernzerhof (GGA)" type="exchange" id="101" />
<functional name="Perdew, Burke &amp; Ernzerhof (GGA)" type="correlation"
 id="130" />
</libxc-info>
</exchange-correlation>
<valence-configuration total-valence-charge="13">
<shell n="5" l="d" occupation="10" />
<shell n="6" l="s" occupation="2" />
<shell n="6" l="p" occupation="1" />
</valence-configuration>
</pseudo-atom-spec>
<grid npts="797">
<annotation type="sampled from oncvpsp log grid"
 recipe="r(i:1..N) = r1*exp(a*(i-1)) + r=0; resampled"
 recipe-cont="r1: scale; a: step" scale="0.617283950617E-05"
 step="0.598207167755E-02" delta="0.500000000000E-02" rmax="44.5814393578" />
<grid-data>
  0.000000000000E+00  5.014450998920E-03  1.003665868141E-02  1.507480990057E-02
  2.008884272849E-02  2.521611556225E-02  3.035397614252E-02  3.546198870692E-02
  4.069271284182E-02  4.586445720707E-02  5.107870888477E-02  5.620922567526E-02
  6.148615186394E-02  6.685733227282E-02  7.226413238484E-02  7.764233029372E-02
  8.292325656643E-02  8.803515973856E-02  9.346219228602E-02  9.863198880262E-02
  1.040877490375E-01  1.091901499760E-01  1.145426715635E-01  1.201575747610E-01
  1.252959458888E-01  1.306540522925E-01  1.362412906448E-01  1.420674594539E-01
  1.472592209222E-01  1.526407118842E-01  1.582188658787E-01  1.640008698266E-01
  1.699941732897E-01  1.751555646810E-01  1.804736670972E-01  1.859532386242E-01
  1.915991818143E-01  1.974165480714E-01  2.034105421714E-01  2.095865269182E-01
  2.146620556084E-01  2.198604976933E-01  2.251848297498E-01  2.306381004386E-01
  2.362234322490E-01  2.419440232875E-01  2.478031491087E-01  2.538041645906E-01
  2.599505058560E-01  2.662456922400E-01  2.726933283046E-01  2.792971059032E-01
  2.843546782251E-01  2.895038341590E-01  2.947462321208E-01  3.000835605572E-01
  3.055175384899E-01  3.110499160686E-01  3.166824751356E-01  3.224170297987E-01
  3.282554270164E-01  3.341995471920E-01  3.402513047797E-01  3.464126489009E-01
  3.526855639723E-01  3.590720703448E-01  3.655742249542E-01  3.721941219837E-01
  3.789338935385E-01  3.857957103324E-01  3.927817823870E-01  3.998943597433E-01
  4.071357331867E-01  4.145082349846E-01  4.220142396375E-01  4.270936030257E-01
  4.322341016318E-01  4.374364712790E-01  4.427014566473E-01  4.480298113795E-01
  4.534222981893E-01  4.588796889703E-01  4.644027649067E-01  4.699923165852E-01
  4.756491441076E-01  4.813740572060E-01  4.871678753586E-01  4.930314279064E-01
  4.989655541727E-01  5.049711035827E-01  5.110489357854E-01  5.171999207765E-01
  5.234249390230E-01  5.297248815891E-01  5.361006502639E-01  5.425531576905E-01
  5.490833274964E-01  5.556920944262E-01  5.623804044747E-01  5.691492150229E-01
  5.759994949750E-01  5.829322248965E-01  5.899483971553E-01  5.970490160635E-01
  6.042350980208E-01  6.115076716606E-01  6.188677779967E-01  6.263164705727E-01
  6.338548156125E-01  6.414838921732E-01  6.492047922994E-01  6.570186211795E-01
  6.649264973040E-01  6.729295526256E-01  6.810289327210E-01  6.892257969552E-01
  6.975213186474E-01  7.059166852386E-01  7.144130984622E-01  7.230117745152E-01
  7.317139442333E-01  7.405208532661E-01  7.494337622560E-01  7.584539470185E-01
  7.675826987248E-01  7.768213240867E-01  7.861711455434E-01  7.956335014512E-01
  8.052097462746E-01  8.149012507808E-01  8.247094022352E-01  8.346356046005E-01
  8.396434182281E-01  8.446812787375E-01  8.497493664099E-01  8.548478626083E-01
  8.599769497840E-01  8.651368114827E-01  8.703276323516E-01  8.755495981457E-01
  8.808028957346E-01  8.860877131090E-01  8.914042393876E-01  8.967526648240E-01
  9.021331808129E-01  9.075459798978E-01  9.129912557772E-01  9.184692033118E-01
  9.239800185317E-01  9.295238986429E-01  9.351010420348E-01  9.407116482870E-01
  9.463559181767E-01  9.520340536857E-01  9.577462580079E-01  9.634927355559E-01
  9.692736919692E-01  9.750893341211E-01  9.809398701258E-01  9.868255093465E-01
  9.927464624026E-01  9.987029411770E-01  1.004695158824E+00  1.010723329777E+00
  1.016787669756E+00  1.022888395774E+00  1.029025726149E+00  1.035199880506E+00
  1.041411079789E+00  1.047659546268E+00  1.053945503545E+00  1.060269176566E+00
  1.066630791626E+00  1.073030576376E+00  1.079468759834E+00  1.085945572393E+00
  1.092461245827E+00  1.099016013302E+00  1.105610109382E+00  1.112243770038E+00
  1.118917232658E+00  1.125630736054E+00  1.132384520471E+00  1.139178827594E+00
  1.146013900559E+00  1.152889983962E+00  1.159807323866E+00  1.166766167809E+00
  1.173766764816E+00  1.180809365405E+00  1.187894221598E+00  1.195021586927E+00
  1.202191716449E+00  1.209404866748E+00  1.216661295948E+00  1.223961263724E+00
  1.231305031306E+00  1.238692861494E+00  1.246125018663E+00  1.253601768775E+00
  1.261123379387E+00  1.268690119664E+00  1.276302260382E+00  1.283960073944E+00
  1.291663834388E+00  1.299413817394E+00  1.307210300298E+00  1.315053562100E+00
  1.322943883473E+00  1.330881546774E+00  1.338866836054E+00  1.346900037071E+00
  1.354981437293E+00  1.363111325917E+00  1.371289993872E+00  1.379517733836E+00
  1.387794840239E+00  1.396121609280E+00  1.404498338936E+00  1.412925328969E+00
  1.421402880943E+00  1.429931298229E+00  1.438510886018E+00  1.447141951334E+00
  1.455824803042E+00  1.464559751860E+00  1.473347110372E+00  1.482187193034E+00
  1.491080316192E+00  1.500026798089E+00  1.509026958878E+00  1.518081120631E+00
  1.527189607355E+00  1.536352744999E+00  1.545570861469E+00  1.554844286638E+00
  1.564173352358E+00  1.573558392472E+00  1.582999742827E+00  1.592497741283E+00
  1.602052727731E+00  1.611665044098E+00  1.621335034362E+00  1.631063044568E+00
  1.640849422836E+00  1.650694519373E+00  1.660598686489E+00  1.670562278608E+00
  1.680585652280E+00  1.690669166193E+00  1.700813181190E+00  1.711018060278E+00
  1.721284168639E+00  1.731611873651E+00  1.742001544893E+00  1.752453554162E+00
  1.762968275487E+00  1.773546085140E+00  1.784187361651E+00  1.794892485821E+00
  1.805661840736E+00  1.816495811780E+00  1.827394786651E+00  1.838359155371E+00
  1.849389310303E+00  1.860485646165E+00  1.871648560042E+00  1.882878451402E+00
  1.894175722111E+00  1.905540776443E+00  1.916974021102E+00  1.928475865229E+00
  1.940046720420E+00  1.951687000742E+00  1.963397122747E+00  1.975177505483E+00
  1.987028570516E+00  1.998950741939E+00  2.010944446391E+00  2.023010113069E+00
  2.035148173748E+00  2.047359062790E+00  2.059643217167E+00  2.072001076470E+00
  2.084433082929E+00  2.096939681426E+00  2.109521319515E+00  2.122178447432E+00
  2.134911518117E+00  2.147720987225E+00  2.160607313149E+00  2.173570957028E+00
  2.186612382770E+00  2.199732057066E+00  2.212930449409E+00  2.226208032105E+00
  2.239565280298E+00  2.253002671980E+00  2.266520688011E+00  2.280119812140E+00
  2.293800531012E+00  2.307563334198E+00  2.321408714204E+00  2.335337166489E+00
  2.349349189488E+00  2.363445284625E+00  2.377625956332E+00  2.391891712070E+00
  2.406243062343E+00  2.420680520717E+00  2.435204603841E+00  2.449815831464E+00
  2.464514726453E+00  2.479301814812E+00  2.494177625701E+00  2.509142691455E+00
  2.524197547604E+00  2.539342732889E+00  2.554578789287E+00  2.569906262022E+00
  2.585325699594E+00  2.600837653792E+00  2.616442679715E+00  2.632141335793E+00
  2.647934183808E+00  2.663821788911E+00  2.679804719644E+00  2.695883547962E+00
  2.712058849250E+00  2.728331202345E+00  2.744701189559E+00  2.761169396697E+00
  2.777736413077E+00  2.794402831555E+00  2.811169248545E+00  2.828036264036E+00
  2.845004481620E+00  2.862074508510E+00  2.879246955561E+00  2.896522437294E+00
  2.913901571918E+00  2.931384981350E+00  2.948973291238E+00  2.966667130985E+00
  2.984467133771E+00  3.002373936574E+00  3.020388180193E+00  3.038510509274E+00
  3.056741572330E+00  3.075082021764E+00  3.093532513894E+00  3.112093708978E+00
  3.130766271232E+00  3.149550868859E+00  3.168448174072E+00  3.187458863117E+00
  3.206583616295E+00  3.225823117993E+00  3.245178056701E+00  3.264649125041E+00
  3.284237019792E+00  3.303942441910E+00  3.323766096562E+00  3.343708693141E+00
  3.363770945300E+00  3.383953570972E+00  3.404257292398E+00  3.424682836152E+00
  3.445230933169E+00  3.465902318768E+00  3.486697732680E+00  3.507617919077E+00
  3.528663626591E+00  3.549835608351E+00  3.571134622001E+00  3.592561429733E+00
  3.614116798311E+00  3.635801499101E+00  3.657616308096E+00  3.679562005944E+00
  3.701639377980E+00  3.723849214248E+00  3.746192309533E+00  3.768669463390E+00
  3.791281480171E+00  3.814029169052E+00  3.836913344066E+00  3.859934824130E+00
  3.883094433075E+00  3.906392999674E+00  3.929831357672E+00  3.953410345818E+00
  3.977130807893E+00  4.000993592740E+00  4.024999554296E+00  4.049149551622E+00
  4.073444448932E+00  4.097885115626E+00  4.122472426319E+00  4.147207260877E+00
  4.172090504442E+00  4.197123047469E+00  4.222305785754E+00  4.247639620468E+00
  4.273125458191E+00  4.298764210940E+00  4.324556796206E+00  4.350504136983E+00
  4.376607161805E+00  4.402866804776E+00  4.429284005605E+00  4.455859709638E+00
  4.482594867896E+00  4.509490437104E+00  4.536547379726E+00  4.563766664004E+00
  4.591149263989E+00  4.618696159572E+00  4.646408336530E+00  4.674286786549E+00
  4.702332507268E+00  4.730546502312E+00  4.758929781326E+00  4.787483360014E+00
  4.816208260174E+00  4.845105509735E+00  4.874176142793E+00  4.903421199650E+00
  4.932841726848E+00  4.962438777209E+00  4.992213409872E+00  5.022166690332E+00
  5.052299690474E+00  5.082613488616E+00  5.113109169548E+00  5.143787824565E+00
  5.174650551513E+00  5.205698454822E+00  5.236932645551E+00  5.268354241424E+00
  5.299964366873E+00  5.331764153074E+00  5.363754737992E+00  5.395937266420E+00
  5.428312890019E+00  5.460882767359E+00  5.493648063963E+00  5.526609952347E+00
  5.559769612061E+00  5.593128229733E+00  5.626686999112E+00  5.660447121106E+00
  5.694409803833E+00  5.728576262656E+00  5.762947720232E+00  5.797525406553E+00
  5.832310558993E+00  5.867304422347E+00  5.902508248881E+00  5.937923298374E+00
  5.973550838164E+00  6.009392143193E+00  6.045448496052E+00  6.081721187029E+00
  6.118211514151E+00  6.154920783236E+00  6.191850307935E+00  6.229001409783E+00
  6.266375418241E+00  6.303973670751E+00  6.341797512775E+00  6.379848297852E+00
  6.418127387639E+00  6.456636151965E+00  6.495375968877E+00  6.534348224690E+00
  6.573554314038E+00  6.612995639922E+00  6.652673613762E+00  6.692589655445E+00
  6.732745193377E+00  6.773141664537E+00  6.813780514525E+00  6.854663197612E+00
  6.895791176798E+00  6.937165923858E+00  6.978788919401E+00  7.020661652918E+00
  7.062785622835E+00  7.105162336572E+00  7.147793310592E+00  7.190680070455E+00
  7.233824150878E+00  7.277227095783E+00  7.320890458358E+00  7.364815801108E+00
  7.409004695915E+00  7.453458724090E+00  7.498179476435E+00  7.543168553294E+00
  7.588427564613E+00  7.633958130001E+00  7.679761878781E+00  7.725840450054E+00
  7.772195492754E+00  7.818828665710E+00  7.865741637705E+00  7.912936087531E+00
  7.960413704056E+00  8.008176186281E+00  8.056225243398E+00  8.104562594859E+00
  8.153189970428E+00  8.202109110250E+00  8.251321764912E+00  8.300829695501E+00
  8.350634673674E+00  8.400738481716E+00  8.451142912607E+00  8.501849770082E+00
  8.552860868703E+00  8.604178033915E+00  8.655803102118E+00  8.707737920731E+00
  8.759984348256E+00  8.812544254345E+00  8.865419519871E+00  8.918612036990E+00
  8.972123709212E+00  9.025956451468E+00  9.080112190176E+00  9.134592863317E+00
  9.189400420497E+00  9.244536823020E+00  9.300004043958E+00  9.355804068222E+00
  9.411938892632E+00  9.468410525987E+00  9.525220989143E+00  9.582372315078E+00
  9.639866548969E+00  9.697705748262E+00  9.755891982752E+00  9.814427334649E+00
  9.873313898656E+00  9.932553782048E+00  9.992149104741E+00  1.005210199937E+01
  1.011241461137E+01  1.017308909903E+01  1.023412763363E+01  1.029553239943E+01
  1.035730559383E+01  1.041944942739E+01  1.048196612395E+01  1.054485792070E+01
  1.060812706822E+01  1.067177583063E+01  1.073580648561E+01  1.080022132453E+01
  1.086502265248E+01  1.093021278839E+01  1.099579406512E+01  1.106176882951E+01
  1.112813944249E+01  1.119490827914E+01  1.126207772882E+01  1.132965019519E+01
  1.139762809636E+01  1.146601386494E+01  1.153480994813E+01  1.160401880782E+01
  1.167364292067E+01  1.174368477819E+01  1.181414688686E+01  1.188503176818E+01
  1.195634195879E+01  1.202808001054E+01  1.210024849060E+01  1.217284998155E+01
  1.224588708144E+01  1.231936240393E+01  1.239327857835E+01  1.246763824982E+01
  1.254244407932E+01  1.261769874379E+01  1.269340493626E+01  1.276956536588E+01
  1.284618275807E+01  1.292325985462E+01  1.300079941375E+01  1.307880421023E+01
  1.315727703549E+01  1.323622069770E+01  1.331563802189E+01  1.339553185002E+01
  1.347590504112E+01  1.355676047137E+01  1.363810103420E+01  1.371992964040E+01
  1.380224921824E+01  1.388506271355E+01  1.396837308983E+01  1.405218332837E+01
  1.413649642834E+01  1.422131540691E+01  1.430664329936E+01  1.439248315915E+01
  1.447883805811E+01  1.456571108645E+01  1.465310535297E+01  1.474102398509E+01
  1.482947012900E+01  1.491844694978E+01  1.500795763147E+01  1.509800537726E+01
  1.518859340953E+01  1.527972496998E+01  1.537140331980E+01  1.546363173972E+01
  1.555641353016E+01  1.564975201134E+01  1.574365052341E+01  1.583811242655E+01
  1.593314110111E+01  1.602873994772E+01  1.612491238740E+01  1.622166186173E+01
  1.631899183290E+01  1.641690578390E+01  1.651540721860E+01  1.661449966191E+01
  1.671418665988E+01  1.681447177984E+01  1.691535861052E+01  1.701685076218E+01
  1.711895186676E+01  1.722166557796E+01  1.732499557142E+01  1.742894554485E+01
  1.753351921812E+01  1.763872033343E+01  1.774455265543E+01  1.785101997136E+01
  1.795812609119E+01  1.806587484774E+01  1.817427009683E+01  1.828331571741E+01
  1.839301561171E+01  1.850337370538E+01  1.861439394761E+01  1.872608031130E+01
  1.883843679317E+01  1.895146741393E+01  1.906517621841E+01  1.917956727572E+01
  1.929464467937E+01  1.941041254745E+01  1.952687502274E+01  1.964403627287E+01
  1.976190049051E+01  1.988047189345E+01  1.999975472481E+01  2.011975325316E+01
  2.024047177268E+01  2.036191460332E+01  2.048408609094E+01  2.060699060748E+01
  2.073063255113E+01  2.085501634643E+01  2.098014644451E+01  2.110602732318E+01
  2.123266348712E+01  2.136005946804E+01  2.148821982485E+01  2.161714914380E+01
  2.174685203866E+01  2.187733315089E+01  2.200859714980E+01  2.214064873270E+01
  2.227349262509E+01  2.240713358084E+01  2.254157638233E+01  2.267682584062E+01
  2.281288679567E+01  2.294976411644E+01  2.308746270114E+01  2.322598747735E+01
  2.336534340221E+01  2.350553546262E+01  2.364656867540E+01  2.378844808745E+01
  2.393117877598E+01  2.407476584863E+01  2.421921444372E+01  2.436452973039E+01
  2.451071690877E+01  2.465778121022E+01  2.480572789748E+01  2.495456226487E+01
  2.510428963846E+01  2.525491537629E+01  2.540644486855E+01  2.555888353776E+01
  2.571223683898E+01  2.586651026002E+01  2.602170932158E+01  2.617783957751E+01
  2.633490661497E+01  2.649291605466E+01  2.665187355099E+01  2.681178479230E+01
  2.697265550105E+01  2.713449143406E+01  2.729729838266E+01  2.746108217296E+01
  2.762584866599E+01  2.779160375799E+01  2.795835338054E+01  2.812610350082E+01
  2.829486012183E+01  2.846462928256E+01  2.863541705825E+01  2.880722956060E+01
  2.898007293797E+01  2.915395337559E+01  2.932887709585E+01  2.950485035842E+01
  2.968187946057E+01  2.985997073734E+01  3.003913056176E+01  3.021936534513E+01
  3.040068153720E+01  3.058308562642E+01  3.076658414018E+01  3.095118364502E+01
  3.113689074689E+01  3.132371209138E+01  3.151165436392E+01  3.170072429011E+01
  3.189092863585E+01  3.208227420766E+01  3.227476785291E+01  3.246841646003E+01
  3.266322695879E+01  3.285920632054E+01  3.305636155846E+01  3.325469972781E+01
  3.345422792618E+01  3.365495329374E+01  3.385688301350E+01  3.406002431158E+01
  3.426438445745E+01  3.446997076420E+01  3.467679058878E+01  3.488485133231E+01
  3.509416044031E+01  3.530472540295E+01  3.551655375537E+01  3.572965307790E+01
  3.594403099637E+01  3.615969518234E+01  3.637665335344E+01  3.659491327356E+01
  3.681448275320E+01  3.703536964972E+01  3.725758186762E+01  3.748112735882E+01
  3.770601412298E+01  3.793225020771E+01  3.815984370896E+01  3.838880277121E+01
  3.861913558784E+01  3.885085040137E+01  3.908395550378E+01  3.931845923680E+01
  3.955436999222E+01  3.979169621217E+01  4.003044638945E+01  4.027062906778E+01
  4.051225284219E+01  4.075532635924E+01  4.099985831740E+01  4.124585746730E+01
  4.149333261211E+01  4.174229260778E+01  4.199274636343E+01  4.224470284161E+01
  4.249817105866E+01  4.275316008501E+01  4.300967904552E+01  4.326773711979E+01
  4.352734354251E+01  4.378850760377E+01  4.405123864939E+01  4.431554608128E+01
  4.458143935777E+01
</grid-data>
</grid>
<valence-charge total-charge="13" is-unscreening-charge="yes"
 rescaled-to-z-pseudo="no">
<radfunc>
<data npts="797">
  2.471824238105E-03  2.473830217785E-03  2.480642771612E-03  2.494670144142E-03
  2.519694933301E-03  2.562386831048E-03  2.629975340714E-03  2.730883212613E-03
  2.880218837871E-03  3.086455582841E-03  3.368039935999E-03  3.733193042370E-03
  4.218144209700E-03  4.846544982761E-03  5.639843427740E-03  6.614078039817E-03
  7.776227033254E-03  9.120550363196E-03  1.081279629200E-02  1.270750009293E-02
  1.503863427373E-02  1.755775753567E-02  2.058601191973E-02  2.422560801512E-02
  2.800732158845E-02  3.244711546111E-02  3.765796091871E-02  4.377163541973E-02
  4.984623095291E-02  5.680774478665E-02  6.478269522990E-02  7.391483996410E-02
  8.436732531164E-02  9.421900906557E-02  1.052353716658E-01  1.175490834143E-01
  1.313068942899E-01  1.466709230968E-01  1.638200231778E-01  1.829512200092E-01
  1.998282087506E-01  2.182326794148E-01  2.382945084824E-01  2.601533173770E-01
  2.839590020063E-01  3.098722576213E-01  3.380650917690E-01  3.687213167529E-01
  4.020370114842E-01  4.382209409020E-01  4.774949192552E-01  5.200941014655E-01
  5.543747474874E-01  5.907753846089E-01  6.294102759629E-01  6.703979636431E-01
  7.138612054733E-01  7.599268769559E-01  8.087258340963E-01  8.603927324925E-01
  9.150657977690E-01  9.728865421312E-01  1.033999421521E+00  1.098551427572E+00
  1.166691608318E+00  1.238570511362E+00  1.314339543057E+00  1.394150237088E+00
  1.478153425800E+00  1.566498307612E+00  1.659331403953E+00  1.756795399388E+00
  1.859027858898E+00  1.966159816815E+00  2.078314232508E+00  2.155930455448E+00
  2.235860193987E+00  2.318131670040E+00  2.402770297552E+00  2.489798402031E+00
  2.579234927728E+00  2.671095132649E+00  2.765390271704E+00  2.862127268369E+00
  2.961308375355E+00  3.062930824927E+00  3.166986469577E+00  3.273461413973E+00
  3.382335639184E+00  3.493582620377E+00  3.607168939346E+00  3.723053893384E+00
  3.841189102216E+00  3.961518114910E+00  4.083976018842E+00  4.208489053051E+00
  4.334974228493E+00  4.463338957935E+00  4.593480698452E+00  4.725286609698E+00
  4.858633231355E+00  4.993386183375E+00  5.129399892830E+00  5.266517351409E+00
  5.404569907770E+00  5.543377099131E+00  5.682746526665E+00  5.822473779350E+00
  5.962342411084E+00  6.102123975902E+00  6.241578126190E+00  6.380452778793E+00
  6.518484353846E+00  6.655398091055E+00  6.790908448014E+00  6.924719584892E+00
  7.056525939555E+00  7.186012896823E+00  7.312857555116E+00  7.436729593226E+00
  7.557292239362E+00  7.674203343906E+00  7.787116556553E+00  7.895682607648E+00
  7.999550692559E+00  8.098369956907E+00  8.191791079326E+00  8.279467947251E+00
  8.361059419932E+00  8.436231171549E+00  8.504657605921E+00  8.566023832852E+00
  8.593964390665E+00  8.620027694736E+00  8.644178303500E+00  8.666381830565E+00
  8.686605010239E+00  8.704815763043E+00  8.720983261079E+00  8.735077993114E+00
  8.747071829223E+00  8.756938084852E+00  8.764651584149E+00  8.770188722388E+00
  8.773527527340E+00  8.774647719423E+00  8.773530770452E+00  8.770159960833E+00
  8.764520435020E+00  8.756599255053E+00  8.746385452021E+00  8.733870075254E+00
  8.719046239074E+00  8.701909166942E+00  8.682456232794E+00  8.660686999433E+00
  8.636603253768E+00  8.610209038764E+00  8.581510681911E+00  8.550516820071E+00
  8.517238420545E+00  8.481688798196E+00  8.443883628507E+00  8.403840956420E+00
  8.361581200840E+00  8.317127154680E+00  8.270503980336E+00  8.221739200497E+00
  8.170862684201E+00  8.117906628052E+00  8.062905532543E+00  8.005896173436E+00
  7.946917568138E+00  7.886010937085E+00  7.823219660087E+00  7.758589227665E+00
  7.692167187399E+00  7.624003085300E+00  7.554148402304E+00  7.482656485909E+00
  7.409582477082E+00  7.334983232522E+00  7.258917242403E+00  7.181444543741E+00
  7.102626629539E+00  7.022526353885E+00  6.941207833199E+00  6.858736343828E+00
  6.775178216222E+00  6.690600725934E+00  6.605071981687E+00  6.518660810801E+00
  6.431436642243E+00  6.343469387620E+00  6.254829320415E+00  6.165586953790E+00
  6.075812917301E+00  5.985577832857E+00  5.894952190284E+00  5.804006222850E+00
  5.712809783124E+00  5.621432219524E+00  5.529942253950E+00  5.438407860852E+00
  5.346896148134E+00  5.255473240244E+00  5.164204163836E+00  5.073152736366E+00
  4.982381457978E+00  4.891951407036E+00  4.801922139639E+00  4.712351593454E+00
  4.623295996179E+00  4.534809778950E+00  4.446945494956E+00  4.359753743564E+00
  4.273283100174E+00  4.187580052049E+00  4.102688940330E+00  4.018651908412E+00
  3.935508856852E+00  3.853297404941E+00  3.772052859049E+00  3.691808187838E+00
  3.612594004387E+00  3.534438555264E+00  3.457367716557E+00  3.381404996820E+00
  3.306571546892E+00  3.232886176509E+00  3.160365377581E+00  3.089023354018E+00
  3.018872057930E+00  2.949921232004E+00  2.882178457853E+00  2.815649210088E+00
  2.750336915849E+00  2.686243019518E+00  2.623367052282E+00  2.561706706248E+00
  2.501257912745E+00  2.442014924446E+00  2.383970400958E+00  2.327115497456E+00
  2.271439955985E+00  2.216932199001E+00  2.163579424743E+00  2.111367703990E+00
  2.060282077799E+00  2.010306655760E+00  1.961424714358E+00  1.913618794986E+00
  1.866870801192E+00  1.821162094720E+00  1.776473589934E+00  1.732785846198E+00
  1.690079157808E+00  1.648333641084E+00  1.607529318242E+00  1.567646197656E+00
  1.528664350180E+00  1.490563981177E+00  1.453325497941E+00  1.416929572207E+00
  1.381357197471E+00  1.346589740866E+00  1.312608989373E+00  1.279397190166E+00
  1.246937084932E+00  1.215211938030E+00  1.184205558374E+00  1.153902314849E+00
  1.124287145201E+00  1.095345558995E+00  1.067063634828E+00  1.039428011090E+00
  1.012425870747E+00  9.860449203044E-01  9.602733631988E-01  9.350998452454E-01
  9.105133059539E-01  8.865027807294E-01  8.630574015006E-01  8.401663919138E-01
  8.178190651084E-01  7.960048217702E-01  7.747131485858E-01  7.539336172167E-01
  7.336558838888E-01  7.138696896915E-01  6.945648616673E-01  6.757313185060E-01
  6.573590927295E-01  6.394383620243E-01  6.219594572533E-01  6.049128603509E-01
  5.882892090786E-01  5.720792986229E-01  5.562740831871E-01  5.408646771113E-01
  5.258423555694E-01  5.111985548478E-01  4.969248722181E-01  4.830130654140E-01
  4.694550517268E-01  4.562429067341E-01  4.433688626821E-01  4.308253065386E-01
  4.186047777415E-01  4.066999656654E-01  3.951037068337E-01  3.838089819031E-01
  3.728089124513E-01  3.620967575986E-01  3.516659104962E-01  3.415098947146E-01
  3.316223605676E-01  3.219970814065E-01  3.126279499227E-01  3.035089744951E-01
  2.946342756094E-01  2.859980823823E-01  2.775947292382E-01  2.694186527657E-01
  2.614643887875E-01  2.537265696723E-01  2.461999231985E-01  2.388792770840E-01
  2.317595667866E-01  2.248358354951E-01  2.181032307956E-01  2.115570038347E-01
  2.051925075425E-01  1.990051950003E-01  1.929906177945E-01  1.871444243718E-01
  1.814623583981E-01  1.759402571237E-01  1.705740497549E-01  1.653597558343E-01
  1.602934836318E-01  1.553714285461E-01  1.505898715199E-01  1.459451774677E-01
  1.414337937185E-01  1.370522484747E-01  1.327971492862E-01  1.286651815426E-01
  1.246531069821E-01  1.207577622197E-01  1.169760572931E-01  1.133049742286E-01
  1.097415656260E-01  1.062829532638E-01  1.029263267236E-01  9.966894203624E-02
  9.650812034676E-02  9.344124660118E-02  9.046576825320E-02  8.757919399174E-02
  8.477909248908E-02  8.206309116956E-02  7.942887499882E-02  7.687418529337E-02
  7.439681855049E-02  7.199462529823E-02  6.966550896533E-02  6.740742477094E-02
  6.521837863385E-02  6.309642610106E-02  6.103967129544E-02  5.904626588225E-02
  5.711440805423E-02  5.524234153501E-02  5.342835460060E-02  5.167077911864E-02
  4.996798960516E-02  4.831840229853E-02  4.672047425041E-02  4.517270243324E-02
  4.367362286421E-02  4.222180974519E-02  4.081587461858E-02  3.945446553853E-02
  3.813626625753E-02  3.685999542788E-02  3.562440581788E-02  3.442828354243E-02
  3.327044730784E-02  3.214974767047E-02  3.106506630914E-02  3.001531531084E-02
  2.899943646971E-02  2.801640059893E-02  2.706520685530E-02  2.614488207636E-02
  2.525448012981E-02  2.439308127491E-02  2.355979153588E-02  2.275374208689E-02
  2.197408864856E-02  2.122001089578E-02  2.049071187662E-02  1.978541744223E-02
  1.910337568747E-02  1.844385640223E-02  1.780615053312E-02  1.718956965558E-02
  1.659344545601E-02  1.601712922406E-02  1.545999135469E-02  1.492142085997E-02
  1.440082489059E-02  1.389762826669E-02  1.341127301816E-02  1.294121793411E-02
  1.248693812143E-02  1.204792457240E-02  1.162368374108E-02  1.121373712855E-02
  1.081762087671E-02  1.043488537066E-02  1.006509484952E-02  9.707827025479E-03
  9.362672711204E-03  9.029235455212E-03  8.707131185325E-03  8.395987860008E-03
  8.095445127496E-03  7.805153992625E-03  7.524776491255E-03  7.253985372181E-03
  6.992463786443E-03  6.739904983919E-03  6.496012017113E-03  6.260497452027E-03
  6.033083086025E-03  5.813499672579E-03  5.601486652806E-03  5.396791893678E-03
  5.199171432824E-03  5.008389229809E-03  4.824216923785E-03  4.646433597420E-03
  4.474825547003E-03  4.309186058606E-03  4.149315190221E-03  3.995019559756E-03
  3.846112138781E-03  3.702412051935E-03  3.563744381878E-03  3.429939979686E-03
  3.300835280584E-03  3.176272124919E-03  3.056097584258E-03  2.940163792510E-03
  2.828327781973E-03  2.720451324199E-03  2.616400775565E-03  2.516046927459E-03
  2.419264860970E-03  2.325933805979E-03  2.235937004555E-03  2.149161578545E-03
  2.065498401270E-03  1.984841973209E-03  1.907090301589E-03  1.832144783776E-03
  1.759910094360E-03  1.690294075858E-03  1.623207632918E-03  1.558564629945E-03
  1.496281792051E-03  1.436278609235E-03  1.378477243704E-03  1.322802440251E-03
  1.269181439594E-03  1.217543894597E-03  1.167821789284E-03  1.119949360571E-03
  1.073863022618E-03  1.029501293743E-03  9.868047258023E-04  9.457158359732E-04
  9.061790408540E-04  8.681405928167E-04  8.315485185372E-04  7.963525596348E-04
  7.625041153523E-04  7.299561872123E-04  6.986633255834E-04  6.685815780959E-04
  6.396684398442E-04  6.118828053173E-04  5.851849220012E-04  5.595363455938E-04
  5.348998967824E-04  5.112396195265E-04  4.885207407982E-04  4.667096317281E-04
  4.457737701091E-04  4.256817042114E-04  4.064030178633E-04  3.879082967526E-04
  3.701690959069E-04  3.531579083107E-04  3.368481346190E-04  3.212140539286E-04
  3.062307955687E-04  2.918743118747E-04  2.781213519083E-04  2.649494360912E-04
  2.523368317172E-04  2.402625293109E-04  2.287062198016E-04  2.176482724816E-04
  2.070697137191E-04  1.969522063983E-04  1.872780300570E-04  1.780300616958E-04
  1.691917572343E-04  1.607471335858E-04  1.526807513298E-04  1.449776979562E-04
  1.376235716601E-04  1.306044656638E-04  1.239069530469E-04  1.175180720620E-04
  1.114253119179E-04  1.056165990110E-04  1.000802835865E-04  9.480512681283E-05
  8.978028825095E-05  8.499531370513E-05  8.044012343741E-05  7.610500073272E-05
  7.198058080000E-05  6.805783999630E-05  6.432808536105E-05  6.078294444862E-05
  5.741435544750E-05  5.421455757541E-05  5.117608174003E-05  4.829174145548E-05
  4.555462400552E-05  4.295808184455E-05  4.049572422846E-05  3.816140906734E-05
  3.594923499290E-05  3.385353363376E-05  3.186886209205E-05  2.998999561539E-05
  2.821192045846E-05  2.652982692889E-05  2.493910261236E-05  2.343532577239E-05
  2.201425892008E-05  2.067184255000E-05  1.940418903803E-05  1.820757669762E-05
  1.707844399092E-05  1.601338389157E-05  1.500913839592E-05  1.406259317986E-05
  1.317077239831E-05  1.233083362485E-05  1.154006292876E-05  1.079587008704E-05
  1.009578392918E-05  9.437447812095E-06  8.818615223246E-06  8.237145509607E-06
  7.690999730402E-06  7.178236631491E-06  6.697008739352E-06  6.245558572607E-06