Tl    ONCVPSP-4.0.1  r_core=   1.40450   1.50003   1.40450   1.40450
81.0000     21.0000      220201    zatom,zion,pspd
8      11   3     4   600     0    pspcod,pspxc,lmax,lloc,mmax,r2well
5.99000000  9.00000000  0.00000000    rchrg fchrg qchrg
2     2     2     1     0    nproj
1     1           extension_switch
0                         1.5652818182940E+01  1.7657880311627E+00
1  0.0000000000000E+00  2.6061177660353E-09 -8.0633496130078E-09
2  1.0000000000000E-02  7.3976485649357E-02 -1.3578173044894E-02
3  2.0000000000000E-02  1.4785526573636E-01 -2.7225466822939E-02
4  3.0000000000000E-02  2.2153748666480E-01 -4.1006919804427E-02
5  4.0000000000000E-02  2.9492203059057E-01 -5.4979503326557E-02
6  5.0000000000000E-02  3.6790446216020E-01 -6.9188329380381E-02
7  6.0000000000000E-02  4.4037606797425E-01 -8.3663142108665E-02
8  7.0000000000000E-02  5.1222301654415E-01 -9.8415177865080E-02
9  8.0000000000000E-02  5.8332566390449E-01 -1.1343447062173E-01
10  9.0000000000000E-02  6.5355802689001E-01 -1.2868766976131E-01
11  1.0000000000000E-01  7.2278744245278E-01 -1.4411642606059E-01
12  1.1000000000000E-01  7.9087442735797E-01 -1.5963638920477E-01
13  1.2000000000000E-01  8.5767274824057E-01 -1.7513684673412E-01
14  1.3000000000000E-01  9.2302970742349E-01 -1.9048102020511E-01
15  1.4000000000000E-01  9.8678664518568E-01 -2.0550701985056E-01
16  1.5000000000000E-01  1.0487796544280E+00 -2.2002944446124E-01
17  1.6000000000000E-01  1.1088404990144E+00 -2.3384159889800E-01
18  1.7000000000000E-01  1.1667977225666E+00 -2.4671828789070E-01
19  1.8000000000000E-01  1.2224779302565E+00 -2.5841913188530E-01
20  1.9000000000000E-01  1.2757072222644E+00 -2.6869233894687E-01
21  2.0000000000000E-01  1.3263127541349E+00 -2.7727885636911E-01
22  2.1000000000000E-01  1.3741243963357E+00 -2.8391681691249E-01
23  2.2000000000000E-01  1.4189764629831E+00 -2.8834618768369E-01
24  2.3000000000000E-01  1.4607094779729E+00 -2.9031352473816E-01
25  2.4000000000000E-01  1.4991719457080E+00 -2.8957673364708E-01
26  2.5000000000000E-01  1.5342220932456E+00 -2.8590973558976E-01
27  2.6000000000000E-01  1.5657295510231E+00 -2.7910694003576E-01
28  2.7000000000000E-01  1.5935769403489E+00 -2.6898742874345E-01
29  2.8000000000000E-01  1.6176613375435E+00 -2.5539876155209E-01
30  2.9000000000000E-01  1.6378955869510E+00 -2.3822032216710E-01
31  3.0000000000000E-01  1.6542094379670E+00 -2.1736613167178E-01
32  3.1000000000000E-01  1.6665504846782E+00 -1.9278706864511E-01
33  3.2000000000000E-01  1.6748848906145E+00 -1.6447244728640E-01
34  3.3000000000000E-01  1.6791978853859E+00 -1.3245091857703E-01
35  3.4000000000000E-01  1.6794940245329E+00 -9.6790673954076E-02
36  3.5000000000000E-01  1.6757972086490E+00 -5.7598945916858E-02
37  3.6000000000000E-01  1.6681504626488E+00 -1.5020815110247E-02
38  3.7000000000000E-01  1.6566154808401E+00  3.0762651604410E-02
39  3.8000000000000E-01  1.6412719481150E+00  7.9536893098545E-02
40  3.9000000000000E-01  1.6222166520009E+00  1.3105692328128E-01
41  4.0000000000000E-01  1.5995624044076E+00  1.8505091253790E-01
42  4.1000000000000E-01  1.5734367955826E+00  2.4122420492258E-01
43  4.2000000000000E-01  1.5439808059628E+00  2.9926368522483E-01
44  4.3000000000000E-01  1.5113473042155E+00  3.5884240240506E-01
45  4.4000000000000E-01  1.4756994617303E+00  4.1962435033089E-01
46  4.5000000000000E-01  1.4372091151236E+00  4.8126930337871E-01
47  4.6000000000000E-01  1.3960551089028E+00  5.4343760338619E-01
48  4.7000000000000E-01  1.3524216503072E+00  6.0579479569117E-01
49  4.8000000000000E-01  1.3064967074876E+00  6.6801601555991E-01
50  4.9000000000000E-01  1.2584704806295E+00  7.2979003212986E-01
51  5.0000000000000E-01  1.2085339733965E+00  7.9082286495837E-01
52  5.1000000000000E-01  1.1568776892195E+00  8.5084089821321E-01
53  5.2000000000000E-01  1.1036904735470E+00  9.0959342925972E-01
54  5.3000000000000E-01  1.0491585192746E+00  9.6685460163966E-01
55  5.4000000000000E-01  9.9346454828117E-01  1.0224246869157E+00
56  5.5000000000000E-01  9.3678717740516E-01  1.0761306952521E+00
57  5.6000000000000E-01  8.7930047240647E-01  1.1278263105791E+00
58  5.7000000000000E-01  8.2117368858582E-01  1.1773911623830E+00
59  5.8000000000000E-01  7.6257119188723E-01  1.2247294622164E+00
60  5.9000000000000E-01  7.0365254960452E-01  1.2697680485520E+00
61  6.0000000000000E-01  6.4457277536090E-01  1.3124538982657E+00
62  6.1000000000000E-01  5.8548270893920E-01  1.3527511764619E+00
63  6.2000000000000E-01  5.2652950790849E-01  1.3906379082464E+00
64  6.3000000000000E-01  4.6785722491185E-01  1.4261023660970E+00
65  6.4000000000000E-01  4.0960744203016E-01  1.4591392744349E+00
66  6.5000000000000E-01  3.5191993188144E-01  1.4897459386504E+00
67  6.6000000000000E-01  2.9493331410771E-01  1.5179184090116E+00
68  6.7000000000000E-01  2.3878567567436E-01  1.5436477904910E+00
69  6.8000000000000E-01  1.8361512397775E-01  1.5669168075120E+00
70  6.9000000000000E-01  1.2956024312404E-01  1.5876967279696E+00
71  7.0000000000000E-01  7.6760425886754E-02  1.6059447436631E+00
72  7.1000000000000E-01  2.5356056733818E-02  1.6216018946368E+00
73  7.2000000000000E-01 -2.4511475117501E-02  1.6345916130194E+00
74  7.3000000000000E-01 -7.2699949479959E-02  1.6448189480349E+00
75  7.4000000000000E-01 -1.1906668796775E-01  1.6521705181975E+00
76  7.5000000000000E-01 -1.6346913278884E-01  1.6565152196362E+00
77  7.6000000000000E-01 -2.0576563314611E-01  1.6577057013837E+00
78  7.7000000000000E-01 -2.4581643520301E-01  1.6555805996970E+00
79  7.8000000000000E-01 -2.8348486587408E-01  1.6499675044810E+00
80  7.9000000000000E-01 -3.1863869507323E-01  1.6406866120728E+00
81  8.0000000000000E-01 -3.5115165562584E-01  1.6275550004619E+00
82  8.1000000000000E-01 -3.8090509495515E-01  1.6103914458746E+00
83  8.2000000000000E-01 -4.0778972801359E-01  1.5890216839658E+00
84  8.3000000000000E-01 -4.3170745686354E-01  1.5632840050094E+00
85  8.4000000000000E-01 -4.5257321892656E-01  1.5330350608087E+00
86  8.5000000000000E-01 -4.7031682330823E-01  1.4981557518755E+00
87  8.6000000000000E-01 -4.8488473284578E-01  1.4585570569961E+00
88  8.7000000000000E-01 -4.9624174867808E-01  1.4141856638199E+00
89  8.8000000000000E-01 -5.0437255424336E-01  1.3650292587129E+00
90  8.9000000000000E-01 -5.0928307669047E-01  1.3111213368779E+00
91  9.0000000000000E-01 -5.1100162574339E-01  1.2525453996683E+00
92  9.1000000000000E-01 -5.0957977306505E-01  1.1894384150436E+00
93  9.2000000000000E-01 -5.0509293908097E-01  1.1219934290969E+00
94  9.3000000000000E-01 -4.9764065898202E-01  1.0504612313326E+00
95  9.4000000000000E-01 -4.8734650514396E-01  9.7515099360530E-01
96  9.5000000000000E-01 -4.7435764937816E-01  8.9642982204917E-01
97  9.6000000000000E-01 -4.5884405514181E-01  8.1472118251996E-01
98  9.7000000000000E-01 -4.4099729695701E-01  7.3050218264911E-01
99  9.8000000000000E-01 -4.2102901167092E-01  6.4429971708765E-01
100  9.9000000000000E-01 -3.9916899368063E-01  5.5668550642157E-01
101  1.0000000000000E+00 -3.7566295368879E-01  4.6827008405487E-01
102  1.0100000000000E+00 -3.5076996779180E-01  3.7969580858391E-01
103  1.0200000000000E+00 -3.2475965057248E-01  2.9162900131179E-01
104  1.0300000000000E+00 -2.9790909221802E-01  2.0475132907703E-01
105  1.0400000000000E+00 -2.7049960537127E-01  1.1975057104286E-01
106  1.0500000000000E+00 -2.4281333231721E-01  3.7310924088501E-02
107  1.0600000000000E+00 -2.1512976707983E-01 -4.1896985449633E-02
108  1.0700000000000E+00 -1.8772224997089E-01 -1.1722620600317E-01
109  1.0800000000000E+00 -1.6085449399731E-01 -1.8806349681779E-01
110  1.0900000000000E+00 -1.3477720324958E-01 -2.5383910885181E-01
111  1.1000000000000E+00 -1.0972484291478E-01 -3.1403612451842E-01
112  1.1100000000000E+00 -8.5912618887142E-02 -3.6819917501086E-01
113  1.1200000000000E+00 -6.3533722080283E-02 -4.1594236250291E-01
114  1.1300000000000E+00 -4.2756888545498E-02 -4.5695622667704E-01
115  1.1400000000000E+00 -2.3724321399285E-02 -4.9101361070303E-01
116  1.1500000000000E+00 -6.5500144888234E-03 -5.1797430057435E-01
117  1.1600000000000E+00  8.6814892653480E-03 -5.3778833342254E-01
118  1.1700000000000E+00  2.1915879618050E-02 -5.5049789445479E-01
119  1.1800000000000E+00  3.3129383982517E-02 -5.5623774833024E-01
120  1.1900000000000E+00  4.2328587540874E-02 -5.5523417819132E-01
121  1.2000000000000E+00  4.9549769496048E-02 -5.4780243417620E-01
122  1.2100000000000E+00  5.4857765604351E-02 -5.3434272190278E-01
123  1.2200000000000E+00  5.8344376249273E-02 -5.1533479010038E-01
124  1.2300000000000E+00  6.0126348129129E-02 -4.9133120430875E-01
125  1.2400000000000E+00  6.0342965992123E-02 -4.6294941991092E-01
126  1.2500000000000E+00  5.9153298642158E-02 -4.3086279233587E-01
127  1.2600000000000E+00  5.6733150389090E-02 -3.9579068420635E-01
128  1.2700000000000E+00  5.3271775188690E-02 -3.5848784838900E-01
129  1.2800000000000E+00  4.8968415724734E-02 -3.1973328173767E-01
130  1.2900000000000E+00  4.4028733697278E-02 -2.8031875710849E-01
131  1.3000000000000E+00  3.8661197264225E-02 -2.4103723879126E-01
132  1.3100000000000E+00  3.3073521388507E-02 -2.0267149001094E-01
133  1.3200000000000E+00  2.7468292148084E-02 -1.6597972028909E-01
134  1.3300000000000E+00  2.2035808175624E-02 -1.3167092274268E-01
135  1.3400000000000E+00  1.6942920976185E-02 -1.0037019247217E-01
136  1.3500000000000E+00  1.2323173209359E-02 -7.2588760457795E-02
137  1.3600000000000E+00  8.3130170204544E-03 -4.8828202981243E-02
138  1.3700000000000E+00  5.0221081816953E-03 -2.9495935914527E-02
139  1.3800000000000E+00  2.5288340076177E-03 -1.4891970321838E-02
140  1.3900000000000E+00  8.7578933063018E-04 -5.1853475545695E-03
141  1.4000000000000E+00  9.5922823195906E-05 -5.7284134359558E-04
142  1.4100000000000E+00 -1.0206843279682E-05  6.1291217519164E-05
143  1.4200000000000E+00  1.8795782630678E-06 -1.1237431839703E-05
144  1.43 -0.  0.
145  1.44  0.  0.
146  1.45  0.  0.
147  1.46  0.  0.
148  1.47  0.  0.
149  1.48  0.  0.
150  1.49  0.  0.
151  1.50  0.  0.
152  1.51  0.  0.
153  1.52  0.  0.
154  1.53  0.  0.
155  1.54  0.  0.
156  1.55  0.  0.
157  1.56  0.  0.
158  1.57  0.  0.
159  1.58  0.  0.
160  1.59  0.  0.
161  1.60  0.  0.
162  1.61  0.  0.
163  1.62  0.  0.
164  1.63  0.  0.
165  1.64  0.  0.
166  1.65  0.  0.
167  1.66  0.  0.
168  1.67  0.  0.
169  1.68  0.  0.
170  1.69  0.  0.
171  1.70  0.  0.
172  1.71  0.  0.
173  1.72  0.  0.
174  1.73  0.  0.
175  1.74  0.  0.
176  1.75  0.  0.
177  1.76  0.  0.
178  1.77  0.  0.
179  1.78  0.  0.
180  1.79  0.  0.
181  1.80  0.  0.
182  1.81  0.  0.
183  1.82  0.  0.
184  1.83  0.  0.
185  1.84  0.  0.
186  1.85  0.  0.
187  1.86  0.  0.
188  1.87  0.  0.
189  1.88  0.  0.
190  1.89  0.  0.
191  1.90  0.  0.
192  1.91  0.  0.
193  1.92  0.  0.
194  1.93  0.  0.
195  1.94  0.  0.
196  1.95  0.  0.
197  1.96  0.  0.
198  1.97  0.  0.
199  1.98  0.  0.
200  1.99  0.  0.
201  2.00  0.  0.
202  2.01  0.  0.
203  2.02  0.  0.
204  2.03  0.  0.
205  2.04  0.  0.
206  2.05  0.  0.
207  2.06  0.  0.
208  2.07  0.  0.
209  2.08  0.  0.
210  2.09  0.  0.
211  2.10  0.  0.
212  2.11  0.  0.
213  2.12  0.  0.
214  2.13  0.  0.
215  2.14  0.  0.
216  2.15  0.  0.
217  2.16  0.  0.
218  2.17  0.  0.
219  2.18  0.  0.
220  2.19  0.  0.
221  2.20  0.  0.
222  2.21  0.  0.
223  2.22  0.  0.
224  2.23  0.  0.
225  2.24  0.  0.
226  2.25  0.  0.
227  2.26  0.  0.
228  2.27  0.  0.
229  2.28  0.  0.
230  2.29  0.  0.
231  2.30  0.  0.
232  2.31  0.  0.
233  2.32  0.  0.
234  2.33  0.  0.
235  2.34  0.  0.
236  2.35  0.  0.
237  2.36  0.  0.
238  2.37  0.  0.
239  2.38  0.  0.
240  2.39  0.  0.
241  2.40  0.  0.
242  2.41  0.  0.
243  2.42  0.  0.
244  2.43  0.  0.
245  2.44  0.  0.
246  2.45  0.  0.
247  2.46  0.  0.
248  2.47  0.  0.
249  2.48  0.  0.
250  2.49  0.  0.
251  2.50  0.  0.
252  2.51  0.  0.
253  2.52  0.  0.
254  2.53  0.  0.
255  2.54  0.  0.
256  2.55  0.  0.
257  2.56  0.  0.
258  2.57  0.  0.
259  2.58  0.  0.
260  2.59  0.  0.
261  2.60  0.  0.
262  2.61  0.  0.
263  2.62  0.  0.
264  2.63  0.  0.
265  2.64  0.  0.
266  2.65  0.  0.
267  2.66  0.  0.
268  2.67  0.  0.
269  2.68  0.  0.
270  2.69  0.  0.
271  2.70  0.  0.
272  2.71  0.  0.
273  2.72  0.  0.
274  2.73  0.  0.
275  2.74  0.  0.
276  2.75  0.  0.
277  2.76  0.  0.
278  2.77  0.  0.
279  2.78  0.  0.
280  2.79  0.  0.
281  2.80  0.  0.
282  2.81  0.  0.
283  2.82  0.  0.
284  2.83  0.  0.
285  2.84  0.  0.
286  2.85  0.  0.
287  2.86  0.  0.
288  2.87  0.  0.
289  2.88  0.  0.
290  2.89  0.  0.
291  2.90  0.  0.
292  2.91  0.  0.
293  2.92  0.  0.
294  2.93  0.  0.
295  2.94  0.  0.
296  2.95  0.  0.
297  2.96  0.  0.
298  2.97  0.  0.
299  2.98  0.  0.
300  2.99  0.  0.
301  3.00  0.  0.
302  3.01  0.  0.
303  3.02  0.  0.
304  3.03  0.  0.
305  3.04  0.  0.
306  3.05  0.  0.
307  3.06  0.  0.
308  3.07  0.  0.
309  3.08  0.  0.
310  3.09  0.  0.
311  3.10  0.  0.
312  3.11  0.  0.
313  3.12  0.  0.
314  3.13  0.  0.
315  3.14  0.  0.
316  3.15  0.  0.
317  3.16  0.  0.
318  3.17  0.  0.
319  3.18  0.  0.
320  3.19  0.  0.
321  3.20  0.  0.
322  3.21  0.  0.
323  3.22  0.  0.
324  3.23  0.  0.
325  3.24  0.  0.
326  3.25  0.  0.
327  3.26  0.  0.
328  3.27  0.  0.
329  3.28  0.  0.
330  3.29  0.  0.
331  3.30  0.  0.
332  3.31  0.  0.
333  3.32  0.  0.
334  3.33  0.  0.
335  3.34  0.  0.
336  3.35  0.  0.
337  3.36  0.  0.
338  3.37  0.  0.
339  3.38  0.  0.
340  3.39  0.  0.
341  3.40  0.  0.
342  3.41  0.  0.
343  3.42  0.  0.
344  3.43  0.  0.
345  3.44  0.  0.
346  3.45  0.  0.
347  3.46  0.  0.
348  3.47  0.  0.
349  3.48  0.  0.
350  3.49  0.  0.
351  3.50  0.  0.
352  3.51  0.  0.
353  3.52  0.  0.
354  3.53  0.  0.
355  3.54  0.  0.
356  3.55  0.  0.
357  3.56  0.  0.
358  3.57  0.  0.
359  3.58  0.  0.
360  3.59  0.  0.
361  3.60  0.  0.
362  3.61  0.  0.
363  3.62  0.  0.
364  3.63  0.  0.
365  3.64  0.  0.
366  3.65  0.  0.
367  3.66  0.  0.
368  3.67  0.  0.
369  3.68  0.  0.
370  3.69  0.  0.
371  3.70  0.  0.
372  3.71  0.  0.
373  3.72  0.  0.
374  3.73  0.  0.
375  3.74  0.  0.
376  3.75  0.  0.
377  3.76  0.  0.
378  3.77  0.  0.
379  3.78  0.  0.
380  3.79  0.  0.
381  3.80  0.  0.
382  3.81  0.  0.
383  3.82  0.  0.
384  3.83  0.  0.
385  3.84  0.  0.
386  3.85  0.  0.
387  3.86  0.  0.
388  3.87  0.  0.
389  3.88  0.  0.
390  3.89  0.  0.
391  3.90  0.  0.
392  3.91  0.  0.
393  3.92  0.  0.
394  3.93  0.  0.
395  3.94  0.  0.
396  3.95  0.  0.
397  3.96  0.  0.
398  3.97  0.  0.
399  3.98  0.  0.
400  3.99  0.  0.
401  4.00  0.  0.
402  4.01  0.  0.
403  4.02  0.  0.
404  4.03  0.  0.
405  4.04  0.  0.
406  4.05  0.  0.
407  4.06  0.  0.
408  4.07  0.  0.
409  4.08  0.  0.
410  4.09  0.  0.
411  4.10  0.  0.
412  4.11  0.  0.
413  4.12  0.  0.
414  4.13  0.  0.
415  4.14  0.  0.
416  4.15  0.  0.
417  4.16  0.  0.
418  4.17  0.  0.
419  4.18  0.  0.
420  4.19  0.  0.
421  4.20  0.  0.
422  4.21  0.  0.
423  4.22  0.  0.
424  4.23  0.  0.
425  4.24  0.  0.
426  4.25  0.  0.
427  4.26  0.  0.
428  4.27  0.  0.
429  4.28  0.  0.
430  4.29  0.  0.
431  4.30  0.  0.
432  4.31  0.  0.
433  4.32  0.  0.
434  4.33  0.  0.
435  4.34  0.  0.
436  4.35  0.  0.
437  4.36  0.  0.
438  4.37  0.  0.
439  4.38  0.  0.
440  4.39  0.  0.
441  4.40  0.  0.
442  4.41  0.  0.
443  4.42  0.  0.
444  4.43  0.  0.
445  4.44  0.  0.
446  4.45  0.  0.
447  4.46  0.  0.
448  4.47  0.  0.
449  4.48  0.  0.
450  4.49  0.  0.
451  4.50  0.  0.
452  4.51  0.  0.
453  4.52  0.  0.
454  4.53  0.  0.
455  4.54  0.  0.
456  4.55  0.  0.
457  4.56  0.  0.
458  4.57  0.  0.
459  4.58  0.  0.
460  4.59  0.  0.
461  4.60  0.  0.
462  4.61  0.  0.
463  4.62  0.  0.
464  4.63  0.  0.
465  4.64  0.  0.
466  4.65  0.  0.
467  4.66  0.  0.
468  4.67  0.  0.
469  4.68  0.  0.
470  4.69  0.  0.
471  4.70  0.  0.
472  4.71  0.  0.
473  4.72  0.  0.
474  4.73  0.  0.
475  4.74  0.  0.
476  4.75  0.  0.
477  4.76  0.  0.
478  4.77  0.  0.
479  4.78  0.  0.
480  4.79  0.  0.
481  4.80  0.  0.
482  4.81  0.  0.
483  4.82  0.  0.
484  4.83  0.  0.
485  4.84  0.  0.
486  4.85  0.  0.
487  4.86  0.  0.
488  4.87  0.  0.
489  4.88  0.  0.
490  4.89  0.  0.
491  4.90  0.  0.
492  4.91  0.  0.
493  4.92  0.  0.
494  4.93  0.  0.
495  4.94  0.  0.
496  4.95  0.  0.
497  4.96  0.  0.
498  4.97  0.  0.
499  4.98  0.  0.
500  4.99  0.  0.
501  5.00  0.  0.
502  5.01  0.  0.
503  5.02  0.  0.
504  5.03  0.  0.
505  5.04  0.  0.
506  5.05  0.  0.
507  5.06  0.  0.
508  5.07  0.  0.
509  5.08  0.  0.
510  5.09  0.  0.
511  5.10  0.  0.
512  5.11  0.  0.
513  5.12  0.  0.
514  5.13  0.  0.
515  5.14  0.  0.
516  5.15  0.  0.
517  5.16  0.  0.
518  5.17  0.  0.
519  5.18  0.  0.
520  5.19  0.  0.
521  5.20  0.  0.
522  5.21  0.  0.
523  5.22  0.  0.
524  5.23  0.  0.
525  5.24  0.  0.
526  5.25  0.  0.
527  5.26  0.  0.
528  5.27  0.  0.
529  5.28  0.  0.
530  5.29  0.  0.
531  5.30  0.  0.
532  5.31  0.  0.
533  5.32  0.  0.
534  5.33  0.  0.
535  5.34  0.  0.
536  5.35  0.  0.
537  5.36  0.  0.
538  5.37  0.  0.
539  5.38  0.  0.
540  5.39  0.  0.
541  5.40  0.  0.
542  5.41  0.  0.
543  5.42  0.  0.
544  5.43  0.  0.
545  5.44  0.  0.
546  5.45  0.  0.
547  5.46  0.  0.
548  5.47  0.  0.
549  5.48  0.  0.
550  5.49  0.  0.
551  5.50  0.  0.
552  5.51  0.  0.
553  5.52  0.  0.
554  5.53  0.  0.
555  5.54  0.  0.
556  5.55  0.  0.
557  5.56  0.  0.
558  5.57  0.  0.
559  5.58  0.  0.
560  5.59  0.  0.
561  5.60  0.  0.
562  5.61  0.  0.
563  5.62  0.  0.
564  5.63  0.  0.
565  5.64  0.  0.
566  5.65  0.  0.
567  5.66  0.  0.
568  5.67  0.  0.
569  5.68  0.  0.
570  5.69  0.  0.
571  5.70  0.  0.
572  5.71  0.  0.
573  5.72  0.  0.
574  5.73  0.  0.
575  5.74  0.  0.
576  5.75  0.  0.
577  5.76  0.  0.
578  5.77  0.  0.
579  5.78  0.  0.
580  5.79  0.  0.
581  5.80  0.  0.
582  5.81  0.  0.
583  5.82  0.  0.
584  5.83  0.  0.
585  5.84  0.  0.
586  5.85  0.  0.
587  5.86  0.  0.
588  5.87  0.  0.
589  5.88  0.  0.
590  5.89  0.  0.
591  5.90  0.  0.
592  5.91  0.  0.
593  5.92  0.  0.
594  5.93  0.  0.
595  5.94  0.  0.
596  5.95  0.  0.
597  5.96  0.  0.
598  5.97  0.  0.
599  5.98  0.  0.
600  5.99  0.  0.
1                         7.5503512563383E+00  1.2350399668417E+00
1  0.0000000000000E+00 -5.3013249484701E-09  1.2704248911546E-08
2  1.0000000000000E-02  1.5284581978601E-03 -1.1059737905166E-04
3  2.0000000000000E-02  6.1123323048759E-03 -4.5072733792076E-04
4  3.0000000000000E-02  1.3747007512223E-02 -1.0450988569781E-03
5  4.0000000000000E-02  2.4424417880003E-02 -1.9338863736343E-03
6  5.0000000000000E-02  3.8132495708504E-02 -3.1712459407156E-03
7  6.0000000000000E-02  5.4854422905950E-02 -4.8232911110325E-03
8  7.0000000000000E-02  7.4567705976070E-02 -6.9655803227776E-03
9  8.0000000000000E-02  9.7243101550199E-02 -9.6801802646380E-03
10  9.0000000000000E-02  1.2284342405895E-01 -1.3052380900958E-02
11  1.0000000000000E-01  1.5132227106684E-01 -1.7167147272184E-02
12  1.1000000000000E-01  1.8262270488416E-01 -2.2105400628109E-02
13  1.2000000000000E-01  2.1667593124860E-01 -2.7940226721364E-02
14  1.3000000000000E-01  2.5340001707685E-01 -3.4733112053226E-02
15  1.4000000000000E-01  2.9269868949149E-01 -4.2530309443279E-02
16  1.5000000000000E-01  3.3446025751632E-01 -5.1359432461345E-02
17  1.6000000000000E-01  3.7855669601657E-01 -6.1226374042740E-02
18  1.7000000000000E-01  4.2484292867180E-01 -7.2112638087350E-02
19  1.8000000000000E-01  4.7315634306328E-01 -8.3973164154339E-02
20  1.9000000000000E-01  5.2331656641279E-01 -9.6734714691249E-02
21  2.0000000000000E-01  5.7512552521884E-01 -1.1029488180949E-01
22  2.1000000000000E-01  6.2836780611520E-01 -1.2452175670918E-01
23  2.2000000000000E-01  6.8281132885149E-01 -1.3925428977272E-01
24  2.3000000000000E-01  7.3820833550765E-01 -1.5430335342327E-01
25  2.4000000000000E-01  7.9429669305297E-01 -1.6945350344108E-01
26  2.5000000000000E-01  8.5080149930191E-01 -1.8446541791695E-01
27  2.6000000000000E-01  9.0743697536097E-01 -1.9907897677766E-01
28  2.7000000000000E-01  9.6390862096222E-01 -2.1301692921605E-01
29  2.8000000000000E-01  1.0199156027919E+00 -2.2598908176365E-01
30  2.9000000000000E-01  1.0751533401936E+00 -2.3769692650080E-01
31  3.0000000000000E-01  1.1293162475891E+00 -2.4783861732573E-01
32  3.1000000000000E-01  1.1821005887364E+00 -2.5611419258409E-01
33  3.2000000000000E-01  1.2332073946396E+00 -2.6223093493577E-01
34  3.3000000000000E-01  1.2823453946212E+00 -2.6590875430293E-01
35  3.4000000000000E-01  1.3292339088288E+00 -2.6688547724562E-01
36  3.5000000000000E-01  1.3736056503165E+00 -2.6492192623769E-01
37  3.6000000000000E-01  1.4152093858308E+00 -2.5980667509721E-01
38  3.7000000000000E-01  1.4538124065350E+00 -2.5136037223214E-01
39  3.8000000000000E-01  1.4892027630886E+00 -2.3943953130690E-01
40  3.9000000000000E-01  1.5211912237085E+00 -2.2393969927055E-01
41  4.0000000000000E-01  1.5496129189868E+00 -2.0479792421202E-01
42  4.1000000000000E-01  1.5743286432289E+00 -1.8199445996644E-01
43  4.2000000000000E-01  1.5952257887866E+00 -1.5555366048996E-01
44  4.3000000000000E-01  1.6122188971401E+00 -1.2554403440522E-01
45  4.4000000000000E-01  1.6252498181949E+00 -9.2077448422047E-02
46  4.5000000000000E-01  1.6342874772236E+00 -5.5307487154922E-02
47  4.6000000000000E-01  1.6393272569334E+00 -1.5426995774654E-02
48  4.7000000000000E-01  1.6403900100971E+00  2.7335149483230E-02
49  4.8000000000000E-01  1.6375207258755E+00  7.2717980098333E-02
50  4.9000000000000E-01  1.6307868802025E+00  1.2043300381523E-01
51  5.0000000000000E-01  1.6202765072404E+00  1.7016930834397E-01
52  5.1000000000000E-01  1.6060960347873E+00  2.2159909241768E-01
53  5.2000000000000E-01  1.5883679314870E+00  2.7438350549392E-01
54  5.3000000000000E-01  1.5672282176419E+00  3.2817866900089E-01
55  5.4000000000000E-01  1.5428238942524E+00  3.8264174640788E-01
56  5.5000000000000E-01  1.5153103465334E+00  4.3743692671016E-01
57  5.6000000000000E-01  1.4848487785376E+00  4.9224118626863E-01
58  5.7000000000000E-01  1.4516037346205E+00  5.4674969737398E-01
59  5.8000000000000E-01  1.4157407613252E+00  6.0068075838317E-01
60  5.9000000000000E-01  1.3774242598729E+00  6.5378012970812E-01
61  6.0000000000000E-01  1.3368155748855E+00  7.0582467215237E-01
62  6.1000000000000E-01  1.2940713593241E+00  7.5662519886344E-01
63  6.2000000000000E-01  1.2493422490193E+00  8.0602846920222E-01
64  6.3000000000000E-01  1.2027718727314E+00  8.5391827177849E-01
65  6.4000000000000E-01  1.1544962155711E+00  9.0021556436627E-01
66  6.5000000000000E-01  1.1046433450077E+00  9.4487765995735E-01
67  6.6000000000000E-01  1.0533334997825E+00  9.8789647036517E-01
68  6.7000000000000E-01  1.0006795330305E+00  1.0292958410656E+00
69  6.8000000000000E-01  9.4678769199387E-01  1.0691280328518E+00
70  6.9000000000000E-01  8.9175870809475E-01  1.1074694268872E+00
71  7.0000000000000E-01  8.3568916302293E-01  1.1444155493710E+00
72  7.1000000000000E-01  7.7867308907801E-01  1.1800755298207E+00
73  7.2000000000000E-01  7.2080375546748E-01  1.2145661224811E+00
74  7.3000000000000E-01  6.6217558676397E-01  1.2480054332114E+00
75  7.4000000000000E-01  6.0288615541041E-01  1.2805065040281E+00
76  7.5000000000000E-01  5.4303818714754E-01  1.3121709140255E+00
77  7.6000000000000E-01  4.8274151661683E-01  1.3430825584398E+00
78  7.7000000000000E-01  4.2211493022224E-01  1.3733017670410E+00
79  7.8000000000000E-01  3.6128783464693E-01  1.4028599187665E+00
80  7.9000000000000E-01  3.0040169221195E-01  1.4317547015782E+00
81  8.0000000000000E-01  2.3961116849558E-01  1.4599461550444E+00
82  8.1000000000000E-01  1.7908494323568E-01  1.4873536182969E+00
83  8.2000000000000E-01  1.1900614240947E-01  1.5138536880695E+00
84  8.3000000000000E-01  5.9572357396073E-02  1.5392792708183E+00
85  8.4000000000000E-01  9.9522611401344E-04  1.5634197898720E+00
86  8.5000000000000E-01 -5.6500439191956E-02  1.5860225836205E+00
87  8.6000000000000E-01 -1.1267798247151E-01  1.6067955044478E+00
88  8.7000000000000E-01 -1.6729068691716E-01  1.6254107009985E+00
89  8.8000000000000E-01 -2.2008399389178E-01  1.6415095390282E+00
90  8.9000000000000E-01 -2.7079813032539E-01  1.6547085891174E+00
91  9.0000000000000E-01 -3.1917110676013E-01  1.6646065835361E+00
92  9.1000000000000E-01 -3.6494203839942E-01  1.6707922201141E+00
93  9.2000000000000E-01 -4.0785473251361E-01  1.6728526686748E+00
94  9.3000000000000E-01 -4.4766147758342E-01  1.6703826159489E+00
95  9.4000000000000E-01 -4.8412696282209E-01  1.6629936683860E+00
96  9.5000000000000E-01 -5.1703225137879E-01  1.6503239193402E+00
97  9.6000000000000E-01 -5.4617872673437E-01  1.6320474780730E+00
98  9.7000000000000E-01 -5.7139192966749E-01  1.6078837531573E+00
99  9.8000000000000E-01 -5.9252520277463E-01  1.5776062823692E+00
100  9.9000000000000E-01 -6.0946306091130E-01  1.5410509051034E+00
101  1.0000000000000E+00 -6.2212420908728E-01  1.4981230817394E+00
102  1.0100000000000E+00 -6.3046413425896E-01  1.4488041771205E+00
103  1.0200000000000E+00 -6.3447720404816E-01  1.3931565421914E+00
104  1.0300000000000E+00 -6.3419821355757E-01  1.3313272485702E+00
105  1.0400000000000E+00 -6.2970333100560E-01  1.2635503550350E+00
106  1.0500000000000E+00 -6.2111040369885E-01  1.1901476121534E+00
107  1.0600000000000E+00 -6.0857859765866E-01  1.1115275409722E+00
108  1.0700000000000E+00 -5.9230735682048E-01  1.0281828533085E+00
109  1.0800000000000E+00 -5.7253468085875E-01  9.4068621406240E-01
110  1.0900000000000E+00 -5.4953473406015E-01  8.4968437936202E-01
111  1.1000000000000E+00 -5.2361481107163E-01  7.5589077774786E-01
112  1.1100000000000E+00 -4.9511169838555E-01  6.6007663400525E-01
113  1.1200000000000E+00 -4.6438748294933E-01  5.6306076630545E-01
114  1.1300000000000E+00 -4.3182487089602E-01  4.6569821600915E-01
115  1.1400000000000E+00 -3.9782208994672E-01  3.6886789548069E-01
116  1.1500000000000E+00 -3.6278745820051E-01  2.7345946172694E-01
117  1.1600000000000E+00 -3.2713370967643E-01  1.8035964230185E-01
118  1.1700000000000E+00 -2.9127217285310E-01  9.0438254089287E-02
119  1.1800000000000E+00 -2.5560690248286E-01  4.5341650907865E-03
120  1.1900000000000E+00 -2.2052886698482E-01 -7.6558546164289E-02
121  1.2000000000000E+00 -1.8641029370540E-01 -1.5210397960260E-01
122  1.2100000000000E+00 -1.5359927225644E-01 -2.2143710278372E-01
123  1.2200000000000E+00 -1.2241471199635E-01 -2.8397550301303E-01
124  1.2300000000000E+00 -9.3141743594306E-02 -3.3922998100523E-01
125  1.2400000000000E+00 -6.6027646643940E-02 -3.8681378517801E-01
126  1.2500000000000E+00 -4.1278375520459E-02 -4.2645031058123E-01
127  1.2600000000000E+00 -1.9055744444131E-02 -4.5797911499160E-01
128  1.2700000000000E+00  5.2467989674203E-04 -4.8136013662544E-01
129  1.2800000000000E+00  1.7394943507109E-02 -4.9667603250443E-01
130  1.2900000000000E+00  3.1535307980866E-02 -5.0413259344719E-01
131  1.3000000000000E+00  4.2974083160687E-02 -5.0405721965768E-01
132  1.3100000000000E+00  5.1786718664921E-02 -4.9689555205766E-01
133  1.3200000000000E+00  5.8093308411647E-02 -4.8320344767779E-01
134  1.3300000000000E+00  6.2052078100059E-02 -4.6362651629851E-01
135  1.3400000000000E+00  6.3853442538052E-02 -4.3888271823484E-01
136  1.3500000000000E+00  6.3715606643488E-02 -4.0975076514644E-01
137  1.3600000000000E+00  6.1879692963571E-02 -3.7705736684937E-01
138  1.3700000000000E+00  5.8604483950831E-02 -3.4166354963810E-01
139  1.3800000000000E+00  5.4160861096854E-02 -3.0445024076515E-01
140  1.3900000000000E+00  4.8826045381688E-02 -2.6630338434081E-01
141  1.4000000000000E+00  4.2877753859631E-02 -2.2809887453686E-01
142  1.4100000000000E+00  3.6588312309094E-02 -1.9068745516368E-01
143  1.4200000000000E+00  3.0219159912015E-02 -1.5488045965794E-01
144  1.4300000000000E+00  2.4011865462975E-02 -1.2142930721593E-01
145  1.4400000000000E+00  1.8174874981333E-02 -9.0996801202478E-02
146  1.4500000000000E+00  1.2911349455542E-02 -6.4205622699568E-02
147  1.4600000000000E+00  8.3958255306028E-03 -4.1593159239332E-02
148  1.4700000000000E+00  4.7670913494383E-03 -2.3595711294237E-02
149  1.4800000000000E+00  2.1261322523269E-03 -1.0544873257781E-02
150  1.4900000000000E+00  5.2773286404398E-04 -2.6300478380003E-03
151  1.5000000000000E+00  3.6244845110637E-07 -1.7914741924734E-06
152  1.5100000000000E+00  2.6107865925273E-06 -1.3063426754233E-05
153  1.5200000000000E+00 -7.5479795700323E-07  3.7650530692122E-06
154  1.53 -0. -0.
155  1.54  0.  0.
156  1.55  0.  0.
157  1.56  0.  0.
158  1.57  0.  0.
159  1.58  0.  0.
160  1.59  0.  0.
161  1.60  0.  0.
162  1.61  0.  0.
163  1.62  0.  0.
164  1.63  0.  0.
165  1.64  0.  0.
166  1.65  0.  0.
167  1.66  0.  0.
168  1.67  0.  0.
169  1.68  0.  0.
170  1.69  0.  0.
171  1.70  0.  0.
172  1.71  0.  0.
173  1.72  0.  0.
174  1.73  0.  0.
175  1.74  0.  0.
176  1.75  0.  0.
177  1.76  0.  0.
178  1.77  0.  0.
179  1.78  0.  0.
180  1.79  0.  0.
181  1.80  0.  0.
182  1.81  0.  0.
183  1.82  0.  0.
184  1.83  0.  0.
185  1.84  0.  0.
186  1.85  0.  0.
187  1.86  0.  0.
188  1.87  0.  0.
189  1.88  0.  0.
190  1.89  0.  0.
191  1.90  0.  0.
192  1.91  0.  0.
193  1.92  0.  0.
194  1.93  0.  0.
195  1.94  0.  0.
196  1.95  0.  0.
197  1.96  0.  0.
198  1.97  0.  0.
199  1.98  0.  0.
200  1.99  0.  0.
201  2.00  0.  0.
202  2.01  0.  0.
203  2.02  0.  0.
204  2.03  0.  0.
205  2.04  0.  0.
206  2.05  0.  0.
207  2.06  0.  0.
208  2.07  0.  0.
209  2.08  0.  0.
210  2.09  0.  0.
211  2.10  0.  0.
212  2.11  0.  0.
213  2.12  0.  0.
214  2.13  0.  0.
215  2.14  0.  0.
216  2.15  0.  0.
217  2.16  0.  0.
218  2.17  0.  0.
219  2.18  0.  0.
220  2.19  0.  0.
221  2.20  0.  0.
222  2.21  0.  0.
223  2.22  0.  0.
224  2.23  0.  0.
225  2.24  0.  0.
226  2.25  0.  0.
227  2.26  0.  0.
228  2.27  0.  0.
229  2.28  0.  0.
230  2.29  0.  0.
231  2.30  0.  0.
232  2.31  0.  0.
233  2.32  0.  0.
234  2.33  0.  0.
235  2.34  0.  0.
236  2.35  0.  0.
237  2.36  0.  0.
238  2.37  0.  0.
239  2.38  0.  0.
240  2.39  0.  0.
241  2.40  0.  0.
242  2.41  0.  0.
243  2.42  0.  0.
244  2.43  0.  0.
245  2.44  0.  0.
246  2.45  0.  0.
247  2.46  0.  0.