<?xml version="1.0" encoding="UTF-8" ?>
<psml version="1.1" energy_unit="hartree" length_unit="bohr"
 uuid="95005480-c73e-11ed-7540-6e68ffff8718"
 xmlns="http://esl.cecam.org/PSML/ns/1.1">
<provenance creator="ONCVPSP-4.0.1+psml-4.0.1-76 (scalar-relativistic)"
 date="2023-03-20">
<annotation action="semilocal-pseudopotential-generation"
 action-cont="projectors-generation" />
<input-file name="oncvpsp-input">
<![CDATA[# atsym z nc nv iexc psfile
Tl 81 10 5 4 both
# n l f
1 0 2.0
2 0 2.0
2 1 6.0
3 0 2.0
3 1 6.0
3 2 10.0
4 0 2.0
4 1 6.0
4 2 10.0
4 3 14.0
5 0 2.0
5 1 6.0
5 2 10.0
6 0 2.0
6 1 1.0
# lmax
3
# l rc ep ncon nbas qcut
0 1.4 0.0 4 8 9.0
1 1.5 0.0 4 8 8.4
2 1.4 0.0 4 8 9.0
3 1.4 0.05 4 7 3.0
# lloc lpopt rc5 dvloc0
4 5 1.3 0.0
# l nproj debl
0 2 1.0
1 2 1.0
2 2 2.5
3 1 1.0
# icmod fcfact rcfact
3 9.0 1.2
# epsh1 epsh2 depsh
-12.0 12.0 0.02
# rlmax drl
6.0 0.01
 0
]]>
</input-file>
</provenance>
<pseudo-atom-spec atomic-label="Tl" atomic-number="81" z-pseudo="21"
 flavor="Hamann&apos;s oncvpsp" relativity="scalar" spin-dft="no"
 core-corrections="yes">
<annotation pseudo-energy="-174.589525144" cutoff_hint_low="35"
 cutoff_hint_normal="38" cutoff_hint_high="40" />
<exchange-correlation>
<annotation oncvpsp-xc-code="4" oncvpsp-xc-type="GGA -- Perdew-Burke-Ernzerhof" />
<libxc-info number-of-functionals="2">
<functional name="Perdew, Burke &amp; Ernzerhof (GGA)" type="exchange" id="101" />
<functional name="Perdew, Burke &amp; Ernzerhof (GGA)" type="correlation"
 id="130" />
</libxc-info>
</exchange-correlation>
<valence-configuration total-valence-charge="21">
<shell n="5" l="s" occupation="2" />
<shell n="5" l="p" occupation="6" />
<shell n="5" l="d" occupation="10" />
<shell n="6" l="s" occupation="2" />
<shell n="6" l="p" occupation="1" />
</valence-configuration>
</pseudo-atom-spec>
<grid npts="797">
<annotation type="sampled from oncvpsp log grid"
 recipe="r(i:1..N) = r1*exp(a*(i-1)) + r=0; resampled"
 recipe-cont="r1: scale; a: step" scale="0.617283950617E-05"
 step="0.598207167755E-02" delta="0.500000000000E-02" rmax="44.5814393578" />
<grid-data>
  0.000000000000E+00  5.014450998920E-03  1.003665868141E-02  1.507480990057E-02
  2.008884272849E-02  2.521611556225E-02  3.035397614252E-02  3.546198870692E-02
  4.069271284182E-02  4.586445720707E-02  5.107870888477E-02  5.620922567526E-02
  6.148615186394E-02  6.685733227282E-02  7.226413238484E-02  7.764233029372E-02
  8.292325656643E-02  8.803515973856E-02  9.346219228602E-02  9.863198880262E-02
  1.040877490375E-01  1.091901499760E-01  1.145426715635E-01  1.201575747610E-01
  1.252959458888E-01  1.306540522925E-01  1.362412906448E-01  1.420674594539E-01
  1.472592209222E-01  1.526407118842E-01  1.582188658787E-01  1.640008698266E-01
  1.699941732897E-01  1.751555646810E-01  1.804736670972E-01  1.859532386242E-01
  1.915991818143E-01  1.974165480714E-01  2.034105421714E-01  2.095865269182E-01
  2.146620556084E-01  2.198604976933E-01  2.251848297498E-01  2.306381004386E-01
  2.362234322490E-01  2.419440232875E-01  2.478031491087E-01  2.538041645906E-01
  2.599505058560E-01  2.662456922400E-01  2.726933283046E-01  2.792971059032E-01
  2.843546782251E-01  2.895038341590E-01  2.947462321208E-01  3.000835605572E-01
  3.055175384899E-01  3.110499160686E-01  3.166824751356E-01  3.224170297987E-01
  3.282554270164E-01  3.341995471920E-01  3.402513047797E-01  3.464126489009E-01
  3.526855639723E-01  3.590720703448E-01  3.655742249542E-01  3.721941219837E-01
  3.789338935385E-01  3.857957103324E-01  3.927817823870E-01  3.998943597433E-01
  4.071357331867E-01  4.145082349846E-01  4.220142396375E-01  4.270936030257E-01
  4.322341016318E-01  4.374364712790E-01  4.427014566473E-01  4.480298113795E-01
  4.534222981893E-01  4.588796889703E-01  4.644027649067E-01  4.699923165852E-01
  4.756491441076E-01  4.813740572060E-01  4.871678753586E-01  4.930314279064E-01
  4.989655541727E-01  5.049711035827E-01  5.110489357854E-01  5.171999207765E-01
  5.234249390230E-01  5.297248815891E-01  5.361006502639E-01  5.425531576905E-01
  5.490833274964E-01  5.556920944262E-01  5.623804044747E-01  5.691492150229E-01
  5.759994949750E-01  5.829322248965E-01  5.899483971553E-01  5.970490160635E-01
  6.042350980208E-01  6.115076716606E-01  6.188677779967E-01  6.263164705727E-01
  6.338548156125E-01  6.414838921732E-01  6.492047922994E-01  6.570186211795E-01
  6.649264973040E-01  6.729295526256E-01  6.810289327210E-01  6.892257969552E-01
  6.975213186474E-01  7.059166852386E-01  7.144130984622E-01  7.230117745152E-01
  7.317139442333E-01  7.405208532661E-01  7.494337622560E-01  7.584539470185E-01
  7.675826987248E-01  7.768213240867E-01  7.861711455434E-01  7.956335014512E-01
  8.052097462746E-01  8.149012507808E-01  8.247094022352E-01  8.346356046005E-01
  8.396434182281E-01  8.446812787375E-01  8.497493664099E-01  8.548478626083E-01
  8.599769497840E-01  8.651368114827E-01  8.703276323516E-01  8.755495981457E-01
  8.808028957346E-01  8.860877131090E-01  8.914042393876E-01  8.967526648240E-01
  9.021331808129E-01  9.075459798978E-01  9.129912557772E-01  9.184692033118E-01
  9.239800185317E-01  9.295238986429E-01  9.351010420348E-01  9.407116482870E-01
  9.463559181767E-01  9.520340536857E-01  9.577462580079E-01  9.634927355559E-01
  9.692736919692E-01  9.750893341211E-01  9.809398701258E-01  9.868255093465E-01
  9.927464624026E-01  9.987029411770E-01  1.004695158824E+00  1.010723329777E+00
  1.016787669756E+00  1.022888395774E+00  1.029025726149E+00  1.035199880506E+00
  1.041411079789E+00  1.047659546268E+00  1.053945503545E+00  1.060269176566E+00
  1.066630791626E+00  1.073030576376E+00  1.079468759834E+00  1.085945572393E+00
  1.092461245827E+00  1.099016013302E+00  1.105610109382E+00  1.112243770038E+00
  1.118917232658E+00  1.125630736054E+00  1.132384520471E+00  1.139178827594E+00
  1.146013900559E+00  1.152889983962E+00  1.159807323866E+00  1.166766167809E+00
  1.173766764816E+00  1.180809365405E+00  1.187894221598E+00  1.195021586927E+00
  1.202191716449E+00  1.209404866748E+00  1.216661295948E+00  1.223961263724E+00
  1.231305031306E+00  1.238692861494E+00  1.246125018663E+00  1.253601768775E+00
  1.261123379387E+00  1.268690119664E+00  1.276302260382E+00  1.283960073944E+00
  1.291663834388E+00  1.299413817394E+00  1.307210300298E+00  1.315053562100E+00
  1.322943883473E+00  1.330881546774E+00  1.338866836054E+00  1.346900037071E+00
  1.354981437293E+00  1.363111325917E+00  1.371289993872E+00  1.379517733836E+00
  1.387794840239E+00  1.396121609280E+00  1.404498338936E+00  1.412925328969E+00
  1.421402880943E+00  1.429931298229E+00  1.438510886018E+00  1.447141951334E+00
  1.455824803042E+00  1.464559751860E+00  1.473347110372E+00  1.482187193034E+00
  1.491080316192E+00  1.500026798089E+00  1.509026958878E+00  1.518081120631E+00
  1.527189607355E+00  1.536352744999E+00  1.545570861469E+00  1.554844286638E+00
  1.564173352358E+00  1.573558392472E+00  1.582999742827E+00  1.592497741283E+00
  1.602052727731E+00  1.611665044098E+00  1.621335034362E+00  1.631063044568E+00
  1.640849422836E+00  1.650694519373E+00  1.660598686489E+00  1.670562278608E+00
  1.680585652280E+00  1.690669166193E+00  1.700813181190E+00  1.711018060278E+00
  1.721284168639E+00  1.731611873651E+00  1.742001544893E+00  1.752453554162E+00
  1.762968275487E+00  1.773546085140E+00  1.784187361651E+00  1.794892485821E+00
  1.805661840736E+00  1.816495811780E+00  1.827394786651E+00  1.838359155371E+00
  1.849389310303E+00  1.860485646165E+00  1.871648560042E+00  1.882878451402E+00
  1.894175722111E+00  1.905540776443E+00  1.916974021102E+00  1.928475865229E+00
  1.940046720420E+00  1.951687000742E+00  1.963397122747E+00  1.975177505483E+00
  1.987028570516E+00  1.998950741939E+00  2.010944446391E+00  2.023010113069E+00
  2.035148173748E+00  2.047359062790E+00  2.059643217167E+00  2.072001076470E+00
  2.084433082929E+00  2.096939681426E+00  2.109521319515E+00  2.122178447432E+00
  2.134911518117E+00  2.147720987225E+00  2.160607313149E+00  2.173570957028E+00
  2.186612382770E+00  2.199732057066E+00  2.212930449409E+00  2.226208032105E+00
  2.239565280298E+00  2.253002671980E+00  2.266520688011E+00  2.280119812140E+00
  2.293800531012E+00  2.307563334198E+00  2.321408714204E+00  2.335337166489E+00
  2.349349189488E+00  2.363445284625E+00  2.377625956332E+00  2.391891712070E+00
  2.406243062343E+00  2.420680520717E+00  2.435204603841E+00  2.449815831464E+00
  2.464514726453E+00  2.479301814812E+00  2.494177625701E+00  2.509142691455E+00
  2.524197547604E+00  2.539342732889E+00  2.554578789287E+00  2.569906262022E+00
  2.585325699594E+00  2.600837653792E+00  2.616442679715E+00  2.632141335793E+00
  2.647934183808E+00  2.663821788911E+00  2.679804719644E+00  2.695883547962E+00
  2.712058849250E+00  2.728331202345E+00  2.744701189559E+00  2.761169396697E+00
  2.777736413077E+00  2.794402831555E+00  2.811169248545E+00  2.828036264036E+00
  2.845004481620E+00  2.862074508510E+00  2.879246955561E+00  2.896522437294E+00
  2.913901571918E+00  2.931384981350E+00  2.948973291238E+00  2.966667130985E+00
  2.984467133771E+00  3.002373936574E+00  3.020388180193E+00  3.038510509274E+00
  3.056741572330E+00  3.075082021764E+00  3.093532513894E+00  3.112093708978E+00
  3.130766271232E+00  3.149550868859E+00  3.168448174072E+00  3.187458863117E+00
  3.206583616295E+00  3.225823117993E+00  3.245178056701E+00  3.264649125041E+00
  3.284237019792E+00  3.303942441910E+00  3.323766096562E+00  3.343708693141E+00
  3.363770945300E+00  3.383953570972E+00  3.404257292398E+00  3.424682836152E+00
  3.445230933169E+00  3.465902318768E+00  3.486697732680E+00  3.507617919077E+00
  3.528663626591E+00  3.549835608351E+00  3.571134622001E+00  3.592561429733E+00
  3.614116798311E+00  3.635801499101E+00  3.657616308096E+00  3.679562005944E+00
  3.701639377980E+00  3.723849214248E+00  3.746192309533E+00  3.768669463390E+00
  3.791281480171E+00  3.814029169052E+00  3.836913344066E+00  3.859934824130E+00
  3.883094433075E+00  3.906392999674E+00  3.929831357672E+00  3.953410345818E+00
  3.977130807893E+00  4.000993592740E+00  4.024999554296E+00  4.049149551622E+00
  4.073444448932E+00  4.097885115626E+00  4.122472426319E+00  4.147207260877E+00
  4.172090504442E+00  4.197123047469E+00  4.222305785754E+00  4.247639620468E+00
  4.273125458191E+00  4.298764210940E+00  4.324556796206E+00  4.350504136983E+00
  4.376607161805E+00  4.402866804776E+00  4.429284005605E+00  4.455859709638E+00
  4.482594867896E+00  4.509490437104E+00  4.536547379726E+00  4.563766664004E+00
  4.591149263989E+00  4.618696159572E+00  4.646408336530E+00  4.674286786549E+00
  4.702332507268E+00  4.730546502312E+00  4.758929781326E+00  4.787483360014E+00
  4.816208260174E+00  4.845105509735E+00  4.874176142793E+00  4.903421199650E+00
  4.932841726848E+00  4.962438777209E+00  4.992213409872E+00  5.022166690332E+00
  5.052299690474E+00  5.082613488616E+00  5.113109169548E+00  5.143787824565E+00
  5.174650551513E+00  5.205698454822E+00  5.236932645551E+00  5.268354241424E+00
  5.299964366873E+00  5.331764153074E+00  5.363754737992E+00  5.395937266420E+00
  5.428312890019E+00  5.460882767359E+00  5.493648063963E+00  5.526609952347E+00
  5.559769612061E+00  5.593128229733E+00  5.626686999112E+00  5.660447121106E+00
  5.694409803833E+00  5.728576262656E+00  5.762947720232E+00  5.797525406553E+00
  5.832310558993E+00  5.867304422347E+00  5.902508248881E+00  5.937923298374E+00
  5.973550838164E+00  6.009392143193E+00  6.045448496052E+00  6.081721187029E+00
  6.118211514151E+00  6.154920783236E+00  6.191850307935E+00  6.229001409783E+00
  6.266375418241E+00  6.303973670751E+00  6.341797512775E+00  6.379848297852E+00
  6.418127387639E+00  6.456636151965E+00  6.495375968877E+00  6.534348224690E+00
  6.573554314038E+00  6.612995639922E+00  6.652673613762E+00  6.692589655445E+00
  6.732745193377E+00  6.773141664537E+00  6.813780514525E+00  6.854663197612E+00
  6.895791176798E+00  6.937165923858E+00  6.978788919401E+00  7.020661652918E+00
  7.062785622835E+00  7.105162336572E+00  7.147793310592E+00  7.190680070455E+00
  7.233824150878E+00  7.277227095783E+00  7.320890458358E+00  7.364815801108E+00
  7.409004695915E+00  7.453458724090E+00  7.498179476435E+00  7.543168553294E+00
  7.588427564613E+00  7.633958130001E+00  7.679761878781E+00  7.725840450054E+00
  7.772195492754E+00  7.818828665710E+00  7.865741637705E+00  7.912936087531E+00
  7.960413704056E+00  8.008176186281E+00  8.056225243398E+00  8.104562594859E+00
  8.153189970428E+00  8.202109110250E+00  8.251321764912E+00  8.300829695501E+00
  8.350634673674E+00  8.400738481716E+00  8.451142912607E+00  8.501849770082E+00
  8.552860868703E+00  8.604178033915E+00  8.655803102118E+00  8.707737920731E+00
  8.759984348256E+00  8.812544254345E+00  8.865419519871E+00  8.918612036990E+00
  8.972123709212E+00  9.025956451468E+00  9.080112190176E+00  9.134592863317E+00
  9.189400420497E+00  9.244536823020E+00  9.300004043958E+00  9.355804068222E+00
  9.411938892632E+00  9.468410525987E+00  9.525220989143E+00  9.582372315078E+00
  9.639866548969E+00  9.697705748262E+00  9.755891982752E+00  9.814427334649E+00
  9.873313898656E+00  9.932553782048E+00  9.992149104741E+00  1.005210199937E+01
  1.011241461137E+01  1.017308909903E+01  1.023412763363E+01  1.029553239943E+01
  1.035730559383E+01  1.041944942739E+01  1.048196612395E+01  1.054485792070E+01
  1.060812706822E+01  1.067177583063E+01  1.073580648561E+01  1.080022132453E+01
  1.086502265248E+01  1.093021278839E+01  1.099579406512E+01  1.106176882951E+01
  1.112813944249E+01  1.119490827914E+01  1.126207772882E+01  1.132965019519E+01
  1.139762809636E+01  1.146601386494E+01  1.153480994813E+01  1.160401880782E+01
  1.167364292067E+01  1.174368477819E+01  1.181414688686E+01  1.188503176818E+01
  1.195634195879E+01  1.202808001054E+01  1.210024849060E+01  1.217284998155E+01
  1.224588708144E+01  1.231936240393E+01  1.239327857835E+01  1.246763824982E+01
  1.254244407932E+01  1.261769874379E+01  1.269340493626E+01  1.276956536588E+01
  1.284618275807E+01  1.292325985462E+01  1.300079941375E+01  1.307880421023E+01
  1.315727703549E+01  1.323622069770E+01  1.331563802189E+01  1.339553185002E+01
  1.347590504112E+01  1.355676047137E+01  1.363810103420E+01  1.371992964040E+01
  1.380224921824E+01  1.388506271355E+01  1.396837308983E+01  1.405218332837E+01
  1.413649642834E+01  1.422131540691E+01  1.430664329936E+01  1.439248315915E+01
  1.447883805811E+01  1.456571108645E+01  1.465310535297E+01  1.474102398509E+01
  1.482947012900E+01  1.491844694978E+01  1.500795763147E+01  1.509800537726E+01
  1.518859340953E+01  1.527972496998E+01  1.537140331980E+01  1.546363173972E+01
  1.555641353016E+01  1.564975201134E+01  1.574365052341E+01  1.583811242655E+01
  1.593314110111E+01  1.602873994772E+01  1.612491238740E+01  1.622166186173E+01
  1.631899183290E+01  1.641690578390E+01  1.651540721860E+01  1.661449966191E+01
  1.671418665988E+01  1.681447177984E+01  1.691535861052E+01  1.701685076218E+01
  1.711895186676E+01  1.722166557796E+01  1.732499557142E+01  1.742894554485E+01
  1.753351921812E+01  1.763872033343E+01  1.774455265543E+01  1.785101997136E+01
  1.795812609119E+01  1.806587484774E+01  1.817427009683E+01  1.828331571741E+01
  1.839301561171E+01  1.850337370538E+01  1.861439394761E+01  1.872608031130E+01
  1.883843679317E+01  1.895146741393E+01  1.906517621841E+01  1.917956727572E+01
  1.929464467937E+01  1.941041254745E+01  1.952687502274E+01  1.964403627287E+01
  1.976190049051E+01  1.988047189345E+01  1.999975472481E+01  2.011975325316E+01
  2.024047177268E+01  2.036191460332E+01  2.048408609094E+01  2.060699060748E+01
  2.073063255113E+01  2.085501634643E+01  2.098014644451E+01  2.110602732318E+01
  2.123266348712E+01  2.136005946804E+01  2.148821982485E+01  2.161714914380E+01
  2.174685203866E+01  2.187733315089E+01  2.200859714980E+01  2.214064873270E+01
  2.227349262509E+01  2.240713358084E+01  2.254157638233E+01  2.267682584062E+01
  2.281288679567E+01  2.294976411644E+01  2.308746270114E+01  2.322598747735E+01
  2.336534340221E+01  2.350553546262E+01  2.364656867540E+01  2.378844808745E+01
  2.393117877598E+01  2.407476584863E+01  2.421921444372E+01  2.436452973039E+01
  2.451071690877E+01  2.465778121022E+01  2.480572789748E+01  2.495456226487E+01
  2.510428963846E+01  2.525491537629E+01  2.540644486855E+01  2.555888353776E+01
  2.571223683898E+01  2.586651026002E+01  2.602170932158E+01  2.617783957751E+01
  2.633490661497E+01  2.649291605466E+01  2.665187355099E+01  2.681178479230E+01
  2.697265550105E+01  2.713449143406E+01  2.729729838266E+01  2.746108217296E+01
  2.762584866599E+01  2.779160375799E+01  2.795835338054E+01  2.812610350082E+01
  2.829486012183E+01  2.846462928256E+01  2.863541705825E+01  2.880722956060E+01
  2.898007293797E+01  2.915395337559E+01  2.932887709585E+01  2.950485035842E+01
  2.968187946057E+01  2.985997073734E+01  3.003913056176E+01  3.021936534513E+01
  3.040068153720E+01  3.058308562642E+01  3.076658414018E+01  3.095118364502E+01
  3.113689074689E+01  3.132371209138E+01  3.151165436392E+01  3.170072429011E+01
  3.189092863585E+01  3.208227420766E+01  3.227476785291E+01  3.246841646003E+01
  3.266322695879E+01  3.285920632054E+01  3.305636155846E+01  3.325469972781E+01
  3.345422792618E+01  3.365495329374E+01  3.385688301350E+01  3.406002431158E+01
  3.426438445745E+01  3.446997076420E+01  3.467679058878E+01  3.488485133231E+01
  3.509416044031E+01  3.530472540295E+01  3.551655375537E+01  3.572965307790E+01
  3.594403099637E+01  3.615969518234E+01  3.637665335344E+01  3.659491327356E+01
  3.681448275320E+01  3.703536964972E+01  3.725758186762E+01  3.748112735882E+01
  3.770601412298E+01  3.793225020771E+01  3.815984370896E+01  3.838880277121E+01
  3.861913558784E+01  3.885085040137E+01  3.908395550378E+01  3.931845923680E+01
  3.955436999222E+01  3.979169621217E+01  4.003044638945E+01  4.027062906778E+01
  4.051225284219E+01  4.075532635924E+01  4.099985831740E+01  4.124585746730E+01
  4.149333261211E+01  4.174229260778E+01  4.199274636343E+01  4.224470284161E+01
  4.249817105866E+01  4.275316008501E+01  4.300967904552E+01  4.326773711979E+01
  4.352734354251E+01  4.378850760377E+01  4.405123864939E+01  4.431554608128E+01
  4.458143935777E+01
</grid-data>
</grid>
<valence-charge total-charge="21" is-unscreening-charge="yes"
 rescaled-to-z-pseudo="no">
<radfunc>
<data npts="797">
  2.626865848735E+00  2.629209854926E+00  2.636256165306E+00  2.648048913348E+00
  2.664481743852E+00  2.686129272275E+00  2.712732178550E+00  2.744050837706E+00
  2.781150993940E+00  2.822831883188E+00  2.869882785487E+00  2.921099844230E+00
  2.978865005293E+00  3.042951467304E+00  3.112843598501E+00  3.187711685414E+00
  3.266402616905E+00  3.347449825784E+00  3.438728081924E+00  3.530679859683E+00
  3.632992051950E+00  3.733562220778E+00  3.844116980664E+00  3.965630060471E+00
  4.081777325554E+00  4.207901296962E+00  4.344836273075E+00  4.493480958815E+00
  4.630941565047E+00  4.778364834938E+00  4.936441405672E+00  5.105903395519E+00
  5.287525527635E+00  5.448755238813E+00  5.619493600257E+00  5.800258480141E+00
  5.991588665886E+00  6.194043385195E+00  6.408201521487E+00  6.634660464846E+00
  6.825096502562E+00  7.024119415353E+00  7.232055920411E+00  7.449236936400E+00
  7.675996351718E+00  7.912669569738E+00  8.159591804532E+00  8.417096098383E+00
  8.685511030252E+00  8.965158082189E+00  9.256348628644E+00  9.559380511795E+00
  9.794594773878E+00  1.003673846441E+01  1.028591404636E+01  1.054221471149E+01
  1.080572302841E+01  1.107650947957E+01  1.135463088250E+01  1.164012869014E+01
  1.193302716626E+01  1.223333143199E+01  1.254102538050E+01  1.285606945755E+01
  1.317839830679E+01  1.350791827992E+01  1.384450481347E+01  1.418799967535E+01
  1.453820808695E+01  1.489489572839E+01  1.525778563754E+01  1.562655501636E+01
  1.600083196157E+01  1.638019214047E+01  1.676415543692E+01  1.702242449146E+01
  1.728232592724E+01  1.754367190985E+01  1.780626141528E+01  1.806987982092E+01
  1.833429851164E+01  1.859927450434E+01  1.886455009441E+01  1.912985252830E+01
  1.939489370593E+01  1.965936991766E+01  1.992296162031E+01  2.018533325725E+01
  2.044613312757E+01  2.070499330989E+01  2.096152964633E+01  2.121534179250E+01
  2.146601333946E+01  2.171311201382E+01  2.195618996218E+01  2.219478412626E+01
  2.242841671503E+01  2.265659578004E+01  2.287881590025E+01  2.309455898225E+01
  2.330329518167E+01  2.350448395113E+01  2.369757521975E+01  2.388201070855E+01
  2.405722538559E+01  2.422264906382E+01  2.437770814379E+01  2.452182750212E+01
  2.465443252605E+01  2.477495129230E+01  2.488281688779E+01  2.497746986777E+01
  2.505836084536E+01  2.512495320480E+01  2.517672592858E+01  2.521317652680E+01
  2.523382405505E+01  2.523821220460E+01  2.522591244711E+01  2.519652721332E+01
  2.514969308342E+01  2.508508396453E+01  2.500241422891E+01  2.490144178465E+01
  2.478197104908E+01  2.464385579371E+01  2.448700182882E+01  2.431136949475E+01
  2.411697592725E+01  2.390389706411E+01  2.367226936132E+01  2.342229118819E+01
  2.329049985997E+01  2.315422387285E+01  2.301350584009E+01  2.286839237195E+01
  2.271893407443E+01  2.256518554141E+01  2.240720533999E+01  2.224505598884E+01
  2.207880392975E+01  2.190851949202E+01  2.173427684991E+01  2.155615397292E+01
  2.137423256913E+01  2.118859802135E+01  2.099933931649E+01  2.080654896781E+01
  2.061032293055E+01  2.041076051071E+01  2.020796426737E+01  2.000203990856E+01
  1.979309618092E+01  1.958124475339E+01  1.936660009498E+01  1.914927934707E+01
  1.892940219038E+01  1.870709070684E+01  1.848246923672E+01  1.825566423126E+01
  1.802680410120E+01  1.779601906126E+01  1.756344097129E+01  1.732920317402E+01
  1.709344032995E+01  1.685628824971E+01  1.661788372407E+01  1.637836435208E+01
  1.613786836754E+01  1.589653446416E+01  1.565450161972E+01  1.541190891951E+01
  1.516889537924E+01  1.492559976792E+01  1.468216043067E+01  1.443871511189E+01
  1.419540077908E+01  1.395235344722E+01  1.370970800431E+01  1.346759803793E+01
  1.322615566321E+01  1.298551135223E+01  1.274579376515E+01  1.250712958309E+01
  1.226964334301E+01  1.203345727469E+01  1.179869113994E+01  1.156546207427E+01
  1.133388443112E+01  1.110406962876E+01  1.087612600020E+01  1.065015864620E+01
  1.042626929158E+01  1.020455614518E+01  9.985113763606E+00  9.768032919192E+00
  9.553400472365E+00  9.341299248881E+00  9.131807922260E+00  8.925000901854E+00
  8.720948226997E+00  8.519715467729E+00  8.321363632590E+00  8.125949084035E+00
  7.933523462029E+00  7.744133616392E+00  7.557821548515E+00  7.374624363020E+00
  7.194574230004E+00  7.017698358476E+00  6.844018981757E+00  6.673553356075E+00
  6.506313773025E+00  6.342307583428E+00  6.181537232592E+00  6.024000311877E+00
  5.869689624964E+00  5.718593269463E+00  5.570694733942E+00  5.425973112997E+00
  5.284403761012E+00  5.145959193159E+00  5.010609322437E+00  4.878321486625E+00
  4.749060639698E+00  4.622789488514E+00  4.499468639515E+00  4.379056746447E+00
  4.261510659299E+00  4.146785574144E+00  4.034835245991E+00  3.925612450369E+00
  3.819069585665E+00  3.715158748511E+00  3.613831815650E+00  3.515040516445E+00
  3.418736502094E+00  3.324871411286E+00  3.233396932419E+00  3.144264862431E+00
  3.057427162322E+00  2.972836009447E+00  2.890443846638E+00  2.810203428260E+00
  2.732067863263E+00  2.655990655311E+00  2.581925740114E+00  2.509827519992E+00
  2.439650895803E+00  2.371351296308E+00  2.304884705055E+00  2.240207684898E+00
  2.177277400206E+00  2.116051636880E+00  2.056488820257E+00  1.998548030987E+00
  1.942189018972E+00  1.887372215460E+00  1.834058743373E+00  1.782210425959E+00
  1.731789793841E+00  1.682760090560E+00  1.635085276679E+00  1.588730032534E+00
  1.543659759702E+00  1.499840581271E+00  1.457239340968E+00  1.415823601233E+00
  1.375561640297E+00  1.336422448339E+00  1.298375722769E+00  1.261391862723E+00
  1.225441962812E+00  1.190497806190E+00  1.156531856997E+00  1.123517252224E+00
  1.091427793067E+00  1.060237935795E+00  1.029922782203E+00  1.000458069679E+00
  9.718201609376E-01  9.439860334516E-01  9.169332686302E-01  8.906400407732E-01
  8.650851058401E-01  8.402477900653E-01  8.161079784514E-01  7.926461031692E-01
  7.698431318930E-01  7.476805560959E-01  7.261403793301E-01  7.052051055152E-01
  6.848577272543E-01  6.650817141990E-01  6.458610014806E-01  6.271799782241E-01
  6.090234761617E-01  5.913767583584E-01  5.742255080643E-01  5.575558177035E-01
  5.413541780129E-01  5.256074673374E-01  5.103029410933E-01  4.954282214047E-01
  4.809712869222E-01  4.669204628277E-01  4.532644110315E-01  4.399921205661E-01
  4.270928981794E-01  4.145563591310E-01  4.023724181935E-01  3.905312808604E-01
  3.790234347617E-01  3.678396412880E-01  3.569709274226E-01  3.464085777823E-01
  3.361441268640E-01  3.261693514989E-01  3.164762635096E-01  3.070571025708E-01
  2.979043292695E-01  2.890106183637E-01  2.803688522361E-01  2.719721145396E-01
  2.638136840329E-01  2.558870286009E-01  2.481857994584E-01  2.407038255321E-01
  2.334351080181E-01  2.263738151109E-01  2.195142768994E-01  2.128509804271E-01
  2.063785649113E-01  2.000918171191E-01  1.939856668932E-01  1.880551828270E-01
  1.822955680820E-01  1.767021563450E-01  1.712704079212E-01  1.659959059574E-01
  1.608743527943E-01  1.559015664410E-01  1.510734771698E-01  1.463861242264E-01
  1.418356526525E-01  1.374183102165E-01  1.331304444487E-01  1.289684997850E-01
  1.249290147803E-01  1.210086194574E-01  1.172040327195E-01  1.135120598567E-01
  1.099295901370E-01  1.064535944790E-01  1.030811232025E-01  9.980930385451E-02
  9.663533910770E-02  9.355650472885E-02  9.057014761406E-02  8.767368388859E-02
  8.486459706859E-02  8.214043628236E-02  7.949881454883E-02  7.693740711092E-02
  7.445394982161E-02  7.204623758075E-02  6.971212282028E-02  6.744951403630E-02
  6.525637436576E-02  6.313072020620E-02  6.107061987670E-02  5.907419231834E-02
  5.713960583278E-02  5.526507685711E-02  5.344886877380E-02  5.168929075420E-02
  4.998469663421E-02  4.833348382104E-02  4.673409222954E-02  4.518500324719E-02
  4.368473872651E-02  4.223186000385E-02  4.082496694349E-02  3.946269700620E-02
  3.814372434126E-02  3.686675890105E-02  3.563054557742E-02  3.443386335906E-02
  3.327552450906E-02  3.215437376199E-02  3.106928753982E-02  3.001917318603E-02
  2.900296821725E-02  2.801963959204E-02  2.706818299593E-02  2.614762214257E-02
  2.525700809023E-02  2.439541857333E-02  2.356195734847E-02  2.275575355464E-02
  2.197596108710E-02  2.122175798471E-02  2.049234583013E-02  1.978694916288E-02
  1.910481490455E-02  1.844521179627E-02  1.780742984778E-02  1.719077979812E-02
  1.659459258756E-02  1.601821884045E-02  1.546102835898E-02  1.492240962736E-02
  1.440176932651E-02  1.389853185873E-02  1.341213888250E-02  1.294204885689E-02
  1.248773659682E-02  1.204869283337E-02  1.162442378983E-02  1.121445076261E-02
  1.081830971219E-02  1.043555086285E-02  1.006573831123E-02  9.708449643328E-03
  9.363275559979E-03  9.029819510673E-03  8.707697335506E-03  8.396536915215E-03
  8.095977829154E-03  7.805671021089E-03  7.525278472705E-03  7.254472884708E-03
  6.992937365414E-03  6.740365126707E-03  6.496459187257E-03  6.260932082901E-03
  6.033505584065E-03  5.813910420116E-03  5.601886010564E-03  5.397180202965E-03
  5.199549017464E-03  5.008756397831E-03  4.824573968916E-03  4.646780800394E-03
  4.475163176712E-03  4.309514373114E-03  4.149634437658E-03  3.995329979101E-03
  3.846413960559E-03  3.702705498830E-03  3.564029669274E-03  3.430217316148E-03
  3.301104868289E-03  3.176534160030E-03  3.056352257270E-03  2.940411288550E-03
  2.828568281075E-03  2.720685001549E-03  2.616627801726E-03  2.516267468570E-03
  2.419479078933E-03  2.326141858625E-03  2.236139045800E-03  2.149357758537E-03
  2.065688866514E-03  1.985026866695E-03  1.907269762909E-03  1.832318949226E-03
  1.760079097045E-03  1.690458045788E-03  1.623366697097E-03  1.558718912459E-03
  1.496431414148E-03  1.436423689402E-03  1.378617897744E-03  1.322938781353E-03
  1.269313578401E-03  1.217671939273E-03  1.167945845577E-03  1.120069531869E-03
  1.073979410015E-03  1.029613996089E-03  9.869138397618E-04  9.458214560743E-04
  9.062812595403E-04  8.682395004959E-04  8.316442036280E-04  7.964451086121E-04
  7.625936127912E-04  7.300427158301E-04  6.987469662809E-04  6.686624099963E-04
  6.397465403316E-04  6.119582500734E-04  5.852577850407E-04  5.596066992991E-04
  5.349678119364E-04  5.113051653451E-04  4.885839849609E-04  4.667706404084E-04
  4.458326080031E-04  4.257384345665E-04  4.064577025049E-04  3.879609961105E-04
  3.702198690410E-04  3.532068129355E-04  3.368952271280E-04  3.212593894174E-04
  3.062744278575E-04  2.919162935304E-04  2.781617342662E-04  2.649882692756E-04
  2.523741646618E-04  2.402984097789E-04  2.287406944047E-04  2.176813866993E-04
  2.071015119175E-04  1.969827318479E-04  1.873073249506E-04  1.780581671665E-04
  1.692187133723E-04  1.607729794559E-04  1.527055249879E-04  1.450014364658E-04
  1.376463111087E-04  1.306262411794E-04  1.239277988134E-04  1.175380213356E-04
  1.114443970427E-04  1.056348514345E-04  1.000977338753E-04  9.482180466748E-05
  8.979622252200E-05  8.501053240791E-05  8.045465376735E-05  7.611886908039E-05
  7.199381276617E-05  6.807046040688E-05  6.434011828209E-05  6.079441320111E-05
  5.742528262224E-05  5.422496504778E-05  5.118599068468E-05  4.830117236105E-05
  4.556359668921E-05  4.296661546672E-05  4.050383730712E-05  3.816911949256E-05
  3.595656004122E-05  3.386048998246E-05  3.187546583335E-05  2.999626227059E-05
  2.821786499200E-05  2.653546376225E-05  2.494444563794E-05  2.344038836718E-05
  2.201905395931E-05  2.067638242061E-05  1.940848565201E-05  1.821164150523E-05
  1.708228799375E-05  1.601701765547E-05  1.501257206374E-05  1.406583648403E-05
  1.317383467330E-05  1.233372381936E-05  1.154278961780E-05  1.079844148383E-05
  1.009820789677E-05  9.439731874883E-06  8.820766578227E-06  8.239171037452E-06