Sm    ONCVPSP-4.0.1  r_core=   2.00717   1.60864   1.90196   1.35244
62.0000     16.0000      241104    zatom,zion,pspd
8      11   3     4   600     0    pspcod,pspxc,lmax,lloc,mmax,r2well
5.99000000  4.00000000  0.00000000    rchrg fchrg qchrg
3     2     2     2     0    nproj
1     1           extension_switch
0                         1.2069995825411E+01  2.3939736375355E+00  4.3652552018731E-01
1  0.0000000000000E+00 -7.3120942634120E-10  2.0521747357005E-09 -3.6044003892677E-09
2  1.0000000000000E-02  4.3807005986885E-02 -2.5986253150936E-02  4.6069910079174E-02
3  2.0000000000000E-02  8.7505563681747E-02 -5.1682787719226E-02  9.1592111996647E-02
4  3.0000000000000E-02  1.3098838090028E-01 -7.6803456322632E-02  1.3602560178156E-01
5  4.0000000000000E-02  1.7415046247022E-01 -1.0106920962719E-01  1.7884270369945E-01
6  5.0000000000000E-02  2.1689022091718E-01 -1.2421153501787E-01  2.1953553493364E-01
7  6.0000000000000E-02  2.5911054229089E-01 -1.4597576431674E-01  2.5762223352590E-01
8  7.0000000000000E-02  3.0071979304670E-01 -1.6612420933298E-01  2.9265287493783E-01
9  8.0000000000000E-02  3.4163275462840E-01 -1.8443908608113E-01  3.2421500619896E-01
10  9.0000000000000E-02  3.8177147329604E-01 -2.0072519102458E-01  3.5193873103638E-01
11  1.0000000000000E-01  4.2106601379726E-01 -2.1481229566418E-01  3.7550128458983E-01
12  1.1000000000000E-01  4.5945510667821E-01 -2.2655722915931E-01  3.9463104223982E-01
13  1.2000000000000E-01  4.9688668036003E-01 -2.3584562240858E-01  4.0911091366085E-01
14  1.3000000000000E-01  5.3331827054883E-01 -2.4259329107958E-01  4.1878108036974E-01
15  1.4000000000000E-01  5.6871730108933E-01 -2.4674723942311E-01  4.2354104270461E-01
16  1.5000000000000E-01  6.0306123199240E-01 -2.4828627128035E-01  4.2335095024651E-01
17  1.6000000000000E-01  6.3633757204837E-01 -2.4722119944452E-01  4.1823219810052E-01
18  1.7000000000000E-01  6.6854375515957E-01 -2.4359464941241E-01  4.0826728008539E-01
19  1.8000000000000E-01  6.9968688126779E-01 -2.3748045850306E-01  3.9359889864885E-01
20  1.9000000000000E-01  7.2978332449317E-01 -2.2898267626963E-01  3.7442834012421E-01
21  2.0000000000000E-01  7.5885821282022E-01 -2.1823417703132E-01  3.5101313267739E-01
22  2.1000000000000E-01  7.8694478534297E-01 -2.0539490014371E-01  3.2366401285558E-01
23  2.2000000000000E-01  8.1408363469461E-01 -1.9064973825658E-01  2.9274123495045E-01
24  2.3000000000000E-01  8.4032184381597E-01 -1.7420609821418E-01  2.5865026531731E-01
25  2.4000000000000E-01  8.6571202764490E-01 -1.5629116339136E-01  2.2183691127354E-01
26  2.5000000000000E-01  8.9031129161435E-01 -1.3714889006779E-01  1.8278194112431E-01
27  2.6000000000000E-01  9.1418012001646E-01 -1.1703677388627E-01  1.4199525817020E-01
28  2.7000000000000E-01  9.3738120830537E-01 -9.6222425465260E-02  1.0000969714082E-01
29  2.8000000000000E-01  9.5997825426095E-01 -7.4979996810059E-02  5.7374516319642E-02
30  2.9000000000000E-01  9.8203472360670E-01 -5.3586502254516E-02  1.4648662607715E-02
31  3.0000000000000E-01  1.0036126061569E+00 -3.2318079233263E-02 -2.7606110137997E-02
32  3.1000000000000E-01  1.0247711788553E+00 -1.1446235219868E-02 -6.8832186990810E-02
33  3.2000000000000E-01  1.0455657921512E+00  8.7658723573886E-03 -1.0848301836971E-01
34  3.3000000000000E-01  1.0660466960415E+00  2.8067076497358E-02 -1.4602994307657E-01
35  3.4000000000000E-01  1.0862579217798E+00  4.6221715235026E-02 -1.8096882482848E-01
36  3.5000000000000E-01  1.1062362347266E+00  6.3012975629291E-02 -2.1282642093634E-01
37  3.6000000000000E-01  1.1260101730901E+00  7.8246024056304E-02 -2.4116640453585E-01
38  3.7000000000000E-01  1.1455991863825E+00  9.1750882048128E-02 -2.6559496548533E-01
39  3.8000000000000E-01  1.1650128863220E+00  1.0338500974897E-01 -2.8576591968014E-01
40  3.9000000000000E-01  1.1842504216298E+00  1.1303556237285E-01 -3.0138526202961E-01
41  4.0000000000000E-01  1.2032999867485E+00  1.2062128881096E-01 -3.1221510465773E-01
42  4.1000000000000E-01  1.2221384729317E+00  1.2609404570798E-01 -3.1807694894837E-01
43  4.2000000000000E-01  1.2407312684608E+00  1.2943990485790E-01 -3.1885424778156E-01
44  4.3000000000000E-01  1.2590322129486E+00  1.3067983660422E-01 -3.1449422260560E-01
45  4.4000000000000E-01  1.2769837088059E+00  1.2986995702248E-01 -3.0500890878526E-01
46  4.5000000000000E-01  1.2945169910088E+00  1.2710133193708E-01 -2.9047541182852E-01
47  4.6000000000000E-01  1.3115525543276E+00  1.2249933623176E-01 -2.7103536654312E-01
48  4.7000000000000E-01  1.3280007351906E+00  1.1622257237839E-01 -2.4689360077914E-01
49  4.8000000000000E-01  1.3437624433837E+00  1.0846135756508E-01 -2.1831601506325E-01
50  4.9000000000000E-01  1.3587300368468E+00  9.9435794193800E-02 -1.8562669902176E-01
51  5.0000000000000E-01  1.3727883309633E+00  8.9393443751182E-02 -1.4920431487046E-01
52  5.1000000000000E-01  1.3858157319475E+00  7.8606629095366E-02 -1.0947778735285E-01
53  5.2000000000000E-01  1.3976854822715E+00  6.7369394949477E-02 -6.6921348163851E-02
54  5.3000000000000E-01  1.4082670045269E+00  5.5994160819676E-02 -2.2048991051542E-02
55  5.4000000000000E-01  1.4174273287458E+00  4.4808104569822E-02  2.4591598718281E-02
56  5.5000000000000E-01  1.4250325869899E+00  3.4149318462203E-02  7.2425570066553E-02
57  5.6000000000000E-01  1.4309495580108E+00  2.4362782543615E-02  1.2085781055743E-01
58  5.7000000000000E-01  1.4350472439760E+00  1.5796202785749E-02  1.6928014813923E-01
59  5.8000000000000E-01  1.4371984606716E+00  8.7957633345693E-03  2.1707876463043E-01
60  5.9000000000000E-01  1.4372814222405E+00  3.7018435706633E-03  2.6364173235036E-01
61  6.0000000000000E-01  1.4351813013968E+00  8.4475138000673E-04  3.0836658334184E-01
62  6.1000000000000E-01  1.4307917461861E+00  5.4052410955018E-04  3.5066781974895E-01
63  6.2000000000000E-01  1.4240163347278E+00  3.0868480857077E-03  3.8998427419032E-01
64  6.3000000000000E-01  1.4147699499853E+00  8.7591463468325E-03  4.2578623034765E-01
65  6.4000000000000E-01  1.4029800574532E+00  1.7806882367517E-02  4.5758221650506E-01
66  6.5000000000000E-01  1.3885878697201E+00  3.0450125072669E-02  4.8492538836994E-01
67  6.6000000000000E-01  1.3715493831451E+00  4.6876417370086E-02  5.0741942216039E-01
68  6.7000000000000E-01  1.3518362733704E+00  6.7237986815025E-02  5.2472384459347E-01
69  6.8000000000000E-01  1.3294366380481E+00  9.1649332903226E-02  5.3655873298518E-01
70  6.9000000000000E-01  1.3043555769843E+00  1.2018522092115E-01  5.4270872610081E-01
71  7.0000000000000E-01  1.2766156018504E+00  1.5287910732887E-01  5.4302629456870E-01
72  7.1000000000000E-01  1.2462568696879E+00  1.8972201636443E-01  5.3743422851117E-01
73  7.2000000000000E-01  1.2133372365708E+00  2.3066188202929E-01  5.2592730940580E-01
74  7.3000000000000E-01  1.1779321299998E+00  2.7560336389565E-01  5.0857314298491E-01
75  7.4000000000000E-01  1.1401342408251E+00  3.2440813936387E-01  4.8551214005151E-01
76  7.5000000000000E-01  1.1000530377173E+00  3.7689566915652E-01  4.5695664233403E-01
77  7.6000000000000E-01  1.0578141093858E+00  4.3284442706114E-01  4.2318920075519E-01
78  7.7000000000000E-01  1.0135583418628E+00  4.9199357928889E-01  3.8456002365176E-01
79  7.8000000000000E-01  9.6744094018364E-01  5.5404509339865E-01  3.4148362238598E-01
80  7.9000000000000E-01  9.1963030568704E-01  6.1866625160247E-01  2.9443469133745E-01
81  8.0000000000000E-01  8.7030678189274E-01  6.8549253851117E-01  2.4394326830090E-01
82  8.1000000000000E-01  8.1966128347111E-01  7.5413086904059E-01  1.9058922976261E-01
83  8.2000000000000E-01  7.6789382417163E-01  8.2416311836866E-01  1.3499618323174E-01
84  8.3000000000000E-01  7.1521196071115E-01  8.9514991253174E-01  7.7824825723116E-02
85  8.4000000000000E-01  6.6182917051214E-01  9.6663463555589E-01  1.9765843477135E-02
86  8.5000000000000E-01  6.0796318182449E-01  1.0381476069332E+00 -3.8467566939459E-02
87  8.6000000000000E-01  5.5383427514174E-01  1.1092103818326E+00 -9.6147471994764E-02
88  8.7000000000000E-01  4.9966357493355E-01  1.1793401256764E+00 -1.5253918189561E-01
89  8.8000000000000E-01  4.4567135056177E-01  1.2480540146232E+00 -2.0690934962019E-01
90  8.9000000000000E-01  3.9207534482437E-01  1.3148736140757E+00 -2.5853409846745E-01
91  9.0000000000000E-01  3.3908914789275E-01  1.3793291885543E+00 -3.0670708857268E-01
92  9.1000000000000E-01  2.8692063348347E-01  1.4409638981152E+00 -3.5074743413565E-01
93  9.2000000000000E-01  2.3577047294924E-01  1.4993378389094E+00 -3.9000738540376E-01
94  9.3000000000000E-01  1.8583074161102E-01  1.5540318884197E+00 -4.2387969265906E-01
95  9.4000000000000E-01  1.3728363009930E-01  1.6046513193246E+00 -4.5180457353398E-01
96  9.5000000000000E-01  9.0300271764969E-02  1.6508291497449E+00 -4.7327620979727E-01
97  9.6000000000000E-01  4.5039695379627E-02  1.6922292017602E+00 -4.8784870523760E-01
98  9.7000000000000E-01  1.6479104105779E-03  1.7285488444559E+00 -4.9514144231027E-01
99  9.8000000000000E-01 -3.9742869837605E-02  1.7595214022799E+00 -4.9484378166806E-01
100  9.9000000000000E-01 -7.9014863945265E-02  1.7849182140832E+00 -4.8671905549682E-01
101  1.0000000000000E+00 -1.1606521569665E-01  1.8045503327688E+00 -4.7060781254627E-01
102  1.0100000000000E+00 -1.5080634568358E-01  1.8182698599099E+00 -4.4643027981853E-01
103  1.0200000000000E+00 -1.8316616374439E-01  1.8259709139233E+00 -4.1418801291183E-01
104  1.0300000000000E+00 -2.1308814652766E-01  1.8275902343046E+00 -3.7396471394122E-01
105  1.0400000000000E+00 -2.4053128604549E-01  1.8231074279848E+00 -3.2592620266337E-01
106  1.0500000000000E+00 -2.6546991646308E-01  1.8125448669570E+00 -2.7031953286797E-01
107  1.0600000000000E+00 -2.8789342753294E-01  1.7959672489178E+00 -2.0747125222848E-01
108  1.0700000000000E+00 -3.0780587399226E-01  1.7734808346918E+00 -1.3778480957865E-01
109  1.0800000000000E+00 -3.2522549088638E-01  1.7452323776421E+00 -6.1737119049407E-02
110  1.0900000000000E+00 -3.4018412514250E-01  1.7114077610991E+00  2.0125704318919E-02
111  1.1000000000000E+00 -3.5272659378652E-01  1.6722303600547E+00  1.0719341789982E-01
112  1.1100000000000E+00 -3.6290997897281E-01  1.6279591430005E+00  1.9879750923247E-01
113  1.1200000000000E+00 -3.7080286948847E-01  1.5788865288847E+00  2.9421780871563E-01
114  1.1300000000000E+00 -3.7648455760921E-01  1.5253360127811E+00  3.9268982243848E-01
115  1.1400000000000E+00 -3.8004419915973E-01  1.4676595721199E+00  4.9341274450045E-01
116  1.1500000000000E+00 -3.8157994338293E-01  1.4062348633308E+00  5.9555810137813E-01
117  1.1600000000000E+00 -3.8119803781781E-01  1.3414622166743E+00  6.9827897290861E-01
118  1.1700000000000E+00 -3.7901191185187E-01  1.2737614350473E+00  8.0071972467734E-01
119  1.1800000000000E+00 -3.7514124105005E-01  1.2035684008994E+00  9.0202617470093E-01
120  1.1900000000000E+00 -3.6971099281960E-01  1.1313314943209E+00  1.0013561025109E+00
121  1.2000000000000E+00 -3.6285045256428E-01  1.0575078251795E+00  1.0978899906230E+00
122  1.2100000000000E+00 -3.5469222830939E-01  9.8255928321508E-01  1.1908418660779E+00
123  1.2200000000000E+00 -3.4537123096649E-01  9.0694841266085E-01  1.2794700824109E+00
124  1.2300000000000E+00 -3.3502362709575E-01  8.3113412260833E-01  1.3630878495177E+00
125  1.2400000000000E+00 -3.2378576137110E-01  7.5556725156753E-01  1.4410732788099E+00
126  1.2500000000000E+00 -3.1179304713126E-01  6.8068601487917E-01  1.5128786635049E+00
127  1.2600000000000E+00 -2.9917882560141E-01  6.0691137747979E-01  1.5780386572157E+00
128  1.2700000000000E+00 -2.8607319783252E-01  5.3464241270094E-01  1.6361769468310E+00
129  1.2800000000000E+00 -2.7260183832664E-01  4.6425173081229E-01  1.6870109373104E+00
130  1.2900000000000E+00 -2.5888480599228E-01  3.9608108985107E-01  1.7303538742367E+00
131  1.3000000000000E+00 -2.4503537680675E-01  3.3043733676531E-01  1.7661137233040E+00
132  1.3100000000000E+00 -2.3115893361152E-01  2.6758886974732E-01  1.7942880031485E+00
133  1.3200000000000E+00 -2.1735196220766E-01  2.0776286397791E-01  1.8149536267366E+00
134  1.3300000000000E+00 -2.0370121979484E-01  1.5114356416462E-01  1.8282506404044E+00
135  1.3400000000000E+00 -1.9028316228944E-01  9.7872020163478E-02  1.8343585463023E+00
136  1.3500000000000E+00 -1.7716374042118E-01  4.8047716313697E-02  1.8334641458330E+00
137  1.3600000000000E+00 -1.6439870702839E-01  1.7326694962696E-03  1.8257193713388E+00
138  1.3700000000000E+00 -1.5203453830169E-01 -4.1042300760350E-02  1.8112496806759E+00
139  1.3800000000000E+00 -1.4010932382754E-01 -8.0273271288295E-02  1.7902193618935E+00
140  1.3900000000000E+00 -1.2865326783320E-01 -1.1598148861934E-01  1.7628443201964E+00
141  1.4000000000000E+00 -1.1768918096607E-01 -1.4821176043506E-01  1.7293883103024E+00
142  1.4100000000000E+00 -1.0723302250656E-01 -1.7703067952984E-01  1.6901592129389E+00
143  1.4200000000000E+00 -9.7294481229382E-02 -2.0252471431910E-01  1.6455049314703E+00
144  1.4300000000000E+00 -8.7877584774660E-02 -2.2479819462684E-01  1.5958090241470E+00
145  1.4400000000000E+00 -7.8981327209578E-02 -2.4397122255342E-01  1.5414861226859E+00
146  1.4500000000000E+00 -7.0600304698536E-02 -2.6017753782352E-01  1.4829771923217E+00
147  1.4600000000000E+00 -6.2725349558444E-02 -2.7356236632553E-01  1.4207446888553E+00
148  1.4700000000000E+00 -5.5344153478137E-02 -2.8428027943570E-01  1.3552676671019E+00
149  1.4800000000000E+00 -4.8441871289971E-02 -2.9249309034599E-01  1.2870368943599E+00
150  1.4900000000000E+00 -4.2001697414873E-02 -2.9836781184831E-01  1.2165500202322E+00
151  1.5000000000000E+00 -3.6005407912785E-02 -3.0207469806587E-01  1.1443068519911E+00
152  1.5100000000000E+00 -3.0433861980198E-02 -3.0378539032859E-01  1.0708047812846E+00
153  1.5200000000000E+00 -2.5267457685443E-02 -3.0367118501464E-01  9.9653440507088E-01
154  1.5300000000000E+00 -2.0486537756365E-02 -3.0190143850380E-01  9.2197537922871E-01
155  1.5400000000000E+00 -1.6071742265960E-02 -2.9864212171374E-01  8.4759253945841E-01
156  1.5500000000000E+00 -1.2004306114188E-02 -2.9405453390046E-01  7.7383231963006E-01
157  1.5600000000000E+00 -8.2663002671769E-03 -2.8829418252077E-01  7.0111949271967E-01
158  1.5700000000000E+00 -4.8408167316316E-03 -2.8150983321079E-01  6.2985425511637E-01
159  1.5800000000000E+00 -1.7120982514494E-03 -2.7384273111487E-01  5.6040966987889E-01
160  1.5900000000000E+00  1.1343853490662E-03 -2.6542599217523E-01  4.9312947991362E-01
161  1.6000000000000E+00  3.7119113507182E-03 -2.5638416038389E-01  4.2832629692565E-01
162  1.6100000000000E+00  6.0325252465901E-03 -2.4683292473143E-01  3.6628016785147E-01
163  1.6200000000000E+00  8.1071044184650E-03 -2.3687898730917E-01  3.0723751555082E-01
164  1.6300000000000E+00  9.9454594122702E-03 -2.2662007209616E-01  2.5141044647538E-01
165  1.6400000000000E+00  1.1556467337759E-02 -2.1614506231821E-01  1.9897641437110E-01
166  1.6500000000000E+00  1.2948231487155E-02 -2.0553425274185E-01  1.5007822511881E-01
167  1.6600000000000E+00  1.4128260978304E-02 -1.9485970213111E-01  1.0482436471840E-01
168  1.6700000000000E+00  1.5103664069481E-02 -1.8418567030346E-01  6.3289629915774E-02
169  1.6800000000000E+00  1.5881348700754E-02 -1.7356912352102E-01  2.5516038047987E-02
170  1.6900000000000E+00  1.6468223906893E-02 -1.6306029181174E-01 -8.4860087309851E-03
171  1.7000000000000E+00  1.6871395880389E-02 -1.5270326169182E-01 -3.8736331740021E-02
172  1.7100000000000E+00  1.7098352783805E-02 -1.4253658822698E-01 -6.5283383914211E-02
173  1.7200000000000E+00  1.7157132739929E-02 -1.3259391074887E-01 -8.8202486466895E-02
174  1.7300000000000E+00  1.7056469973754E-02 -1.2290455763608E-01 -1.0759392201845E-01
175  1.7400000000000E+00  1.6805914389066E-02 -1.1349412572342E-01 -1.2358091483917E-01
176  1.7500000000000E+00  1.6415920997901E-02 -1.0438502299603E-01 -1.3630752238530E-01
177  1.7600000000000E+00  1.5897906658099E-02 -9.5596965926653E-02 -1.4593645724696E-01
178  1.7700000000000E+00  1.5264267800790E-02 -8.7147408034425E-02 -1.5264691020979E-01
179  1.7800000000000E+00  1.4528365027760E-02 -7.9051919374083E-02 -1.5663231003179E-01
180  1.7900000000000E+00  1.3704465446346E-02 -7.1324481150783E-02 -1.5809813842459E-01
181  1.8000000000000E+00  1.2807647801742E-02 -6.3977710033196E-02 -1.5725976040412E-01
182  1.8100000000000E+00  1.1853669344364E-02 -5.7023003514229E-02 -1.5434030887490E-01
183  1.8200000000000E+00  1.0858796049641E-02 -5.0470606420314E-02 -1.4956863778791E-01
184  1.8300000000000E+00  9.8395984179419E-03 -4.4329599980981E-02 -1.4317735749429E-01
185  1.8400000000000E+00  8.8127157319216E-03 -3.8607816407356E-02 -1.3540096421756E-01
186  1.8500000000000E+00  7.7945922588148E-03 -3.3311683431150E-02 -1.2647407356914E-01
187  1.8600000000000E+00  6.8011894759510E-03 -2.8446004786869E-02 -1.1662976564847E-01
188  1.8700000000000E+00  5.8476885051486E-03 -2.4013707812577E-02 -1.0609801262333E-01
189  1.8800000000000E+00  4.9481102484224E-03 -2.0015373927413E-02 -9.5104471565819E-02
190  1.8900000000000E+00  4.1151141928334E-03 -1.6449196774280E-02 -8.3868723447875E-02
191  1.9000000000000E+00  3.3596161852108E-03 -1.3310469718609E-02 -7.2603274536995E-02
192  1.9100000000000E+00  2.6869261272707E-03 -1.0582405128589E-02 -6.1525215697158E-02
193  1.9200000000000E+00  2.0793310918481E-03 -8.1931613278554E-03 -5.0916920844167E-02
194  1.9300000000000E+00  1.5373574549778E-03 -6.1187811918265E-03 -4.0975489540359E-02
195  1.9400000000000E+00  1.0751692095184E-03 -4.3721574790683E-03 -3.1827489615799E-02
196  1.9500000000000E+00  6.9923024881186E-04 -2.9503141355129E-03 -2.3604208673525E-02
197  1.9600000000000E+00  4.1159280432840E-04 -1.8428108470464E-03 -1.6428464594581E-02
198  1.9700000000000E+00  2.0914724032476E-04 -1.0300833981964E-03 -1.0416169560777E-02
199  1.9800000000000E+00  8.3403010487213E-05 -4.8317597647758E-04 -5.6783828850989E-03
200  1.9900000000000E+00  2.0558795501425E-05 -1.6264622126354E-04 -2.2935700867262E-03
201  2.0000000000000E+00  8.2557955083283E-07 -2.4396168525228E-05 -4.5676231360944E-04
202  2.0100000000000E+00 -2.2792450358005E-07  3.0820036183276E-06  4.8470888040060E-05
203  2.0200000000000E+00  1.7850713884225E-08 -2.6777993281234E-07 -4.4539131451171E-06
204  2.03  0. -0. -0.
205  2.04 -0.  0.  0.
206  2.05  0. -0.  0.
207  2.06  0.  0.  0.
208  2.07  0.  0.  0.
209  2.08  0.  0.  0.
210  2.09  0.  0.  0.
211  2.10  0.  0.  0.
212  2.11  0.  0.  0.
213  2.12  0.  0.  0.
214  2.13  0.  0.  0.
215  2.14  0.  0.  0.
216  2.15  0.  0.  0.
217  2.16  0.  0.  0.
218  2.17  0.  0.  0.
219  2.18  0.  0.  0.
220  2.19  0.  0.  0.
221  2.20  0.  0.  0.
222  2.21  0.  0.  0.
223  2.22  0.  0.  0.
224  2.23  0.  0.  0.
225  2.24  0.  0.  0.
226  2.25  0.  0.  0.
227  2.26  0.  0.  0.
228  2.27  0.  0.  0.
229  2.28  0.  0.  0.
230  2.29  0.  0.  0.
231  2.30  0.  0.  0.
232  2.31  0.  0.  0.
233  2.32  0.  0.  0.
234  2.33  0.  0.  0.
235  2.34  0.  0.  0.
236  2.35  0.  0.  0.
237  2.36  0.  0.  0.
238  2.37  0.  0.  0.
239  2.38  0.  0.  0.
240  2.39  0.  0.  0.
241  2.40  0.  0.  0.
242  2.41  0.  0.  0.
243  2.42  0.  0.  0.
244  2.43  0.  0.  0.
245  2.44  0.  0.  0.
246  2.45  0.  0.  0.
247  2.46  0.  0.  0.
248  2.47  0.  0.  0.
249  2.48  0.  0.  0.
250  2.49  0.  0.  0.
251  2.50  0.  0.  0.
252  2.51  0.  0.  0.
253  2.52  0.  0.  0.
254  2.53  0.  0.  0.
255  2.54  0.  0.  0.
256  2.55  0.  0.  0.
257  2.56  0.  0.  0.
258  2.57  0.  0.  0.
259  2.58  0.  0.  0.
260  2.59  0.  0.  0.
261  2.60  0.  0.  0.
262  2.61  0.  0.  0.
263  2.62  0.  0.  0.
264  2.63  0.  0.  0.
265  2.64  0.  0.  0.
266  2.65  0.  0.  0.
267  2.66  0.  0.  0.
268  2.67  0.  0.  0.
269  2.68  0.  0.  0.
270  2.69  0.  0.  0.
271  2.70  0.  0.  0.
272  2.71  0.  0.  0.
273  2.72  0.  0.  0.
274  2.73  0.  0.  0.
275  2.74  0.  0.  0.
276  2.75  0.  0.  0.
277  2.76  0.  0.  0.
278  2.77  0.  0.  0.
279  2.78  0.  0.  0.
280  2.79  0.  0.  0.
281  2.80  0.  0.  0.
282  2.81  0.  0.  0.
283  2.82  0.  0.  0.
284  2.83  0.  0.  0.
285  2.84  0.  0.  0.
286  2.85  0.  0.  0.
287  2.86  0.  0.  0.
288  2.87  0.  0.  0.
289  2.88  0.  0.  0.
290  2.89  0.  0.  0.
291  2.90  0.  0.  0.
292  2.91  0.  0.  0.
293  2.92  0.  0.  0.
294  2.93  0.  0.  0.
295  2.94  0.  0.  0.
296  2.95  0.  0.  0.
297  2.96  0.  0.  0.
298  2.97  0.  0.  0.
299  2.98  0.  0.  0.
300  2.99  0.  0.  0.
301  3.00  0.  0.  0.
302  3.01  0.  0.  0.
303  3.02  0.  0.  0.
304  3.03  0.  0.  0.
305  3.04  0.  0.  0.
306  3.05  0.  0.  0.
307  3.06  0.  0.  0.
308  3.07  0.  0.  0.
309  3.08  0.  0.  0.
310  3.09  0.  0.  0.
311  3.10  0.  0.  0.
312  3.11  0.  0.  0.
313  3.12  0.  0.  0.
314  3.13  0.  0.  0.
315  3.14  0.  0.  0.
316  3.15  0.  0.  0.
317  3.16  0.  0.  0.
318  3.17  0.  0.  0.
319  3.18  0.  0.  0.
320  3.19  0.  0.  0.
321  3.20  0.  0.  0.
322  3.21  0.  0.  0.
323  3.22  0.  0.  0.
324  3.23  0.  0.  0.
325  3.24  0.  0.  0.
326  3.25  0.  0.  0.
327  3.26  0.  0.  0.
328  3.27  0.  0.  0.
329  3.28  0.  0.  0.
330  3.29  0.  0.  0.
331  3.30  0.  0.  0.
332  3.31  0.  0.  0.
333  3.32  0.  0.  0.
334  3.33  0.  0.  0.
335  3.34  0.  0.  0.
336  3.35  0.  0.  0.
337  3.36  0.  0.  0.
338  3.37  0.  0.  0.
339  3.38  0.  0.  0.
340  3.39  0.  0.  0.
341  3.40  0.  0.  0.
342  3.41  0.  0.  0.
343  3.42  0.  0.  0.
344  3.43  0.  0.  0.
345  3.44  0.  0.  0.
346  3.45  0.  0.  0.
347  3.46  0.  0.  0.
348  3.47  0.  0.  0.
349  3.48  0.  0.  0.
350  3.49  0.  0.  0.
351  3.50  0.  0.  0.
352  3.51  0.  0.  0.
353  3.52  0.  0.  0.
354  3.53  0.  0.  0.
355  3.54  0.  0.  0.
356  3.55  0.  0.  0.
357  3.56  0.  0.  0.
358  3.57  0.  0.  0.
359  3.58  0.  0.  0.
360  3.59  0.  0.  0.
361  3.60  0.  0.  0.
362  3.61  0.  0.  0.
363  3.62  0.  0.  0.
364  3.63  0.  0.  0.
365  3.64  0.  0.  0.
366  3.65  0.  0.  0.
367  3.66  0.  0.  0.
368  3.67  0.  0.  0.
369  3.68  0.  0.  0.
370  3.69  0.  0.  0.
371  3.70  0.  0.  0.
372  3.71  0.  0.  0.
373  3.72  0.  0.  0.
374  3.73  0.  0.  0.
375  3.74  0.  0.  0.
376  3.75  0.  0.  0.
377  3.76  0.  0.  0.
378  3.77  0.  0.  0.
379  3.78  0.  0.  0.
380  3.79  0.  0.  0.
381  3.80  0.  0.  0.
382  3.81  0.  0.  0.
383  3.82  0.  0.  0.
384  3.83  0.  0.  0.
385  3.84  0.  0.  0.
386  3.85  0.  0.  0.
387  3.86  0.  0.  0.
388  3.87  0.  0.  0.
389  3.88  0.  0.  0.
390  3.89  0.  0.  0.
391  3.90  0.  0.  0.
392  3.91  0.  0.  0.
393  3.92  0.  0.  0.
394  3.93  0.  0.  0.
395  3.94  0.  0.  0.
396  3.95  0.  0.  0.
397  3.96  0.  0.  0.
398  3.97  0.  0.  0.
399  3.98  0.  0.  0.
400  3.99  0.  0.  0.
401  4.00  0.  0.  0.
402  4.01  0.  0.  0.
403  4.02  0.  0.  0.
404  4.03  0.  0.  0.
405  4.04  0.  0.  0.
406  4.05  0.  0.  0.
407  4.06  0.  0.  0.
408  4.07  0.  0.  0.
409  4.08  0.  0.  0.
410  4.09  0.  0.  0.
411  4.10  0.  0.  0.
412  4.11  0.  0.  0.
413  4.12  0.  0.  0.
414  4.13  0.  0.  0.
415  4.14  0.  0.  0.
416  4.15  0.  0.  0.
417  4.16  0.  0.  0.
418  4.17  0.  0.  0.
419  4.18  0.  0.  0.
420  4.19  0.  0.  0.
421  4.20  0.  0.  0.
422  4.21  0.  0.  0.
423  4.22  0.  0.  0.
424  4.23  0.  0.  0.
425  4.24  0.  0.  0.
426  4.25  0.  0.  0.
427  4.26  0.  0.  0.
428  4.27  0.  0.  0.
429  4.28  0.  0.  0.
430  4.29  0.  0.  0.
431  4.30  0.  0.  0.
432  4.31  0.  0.  0.
433  4.32  0.  0.  0.
434  4.33  0.  0.  0.
435  4.34  0.  0.  0.
436  4.35  0.  0.  0.
437  4.36  0.  0.  0.
438  4.37  0.  0.  0.
439  4.38  0.  0.  0.
440  4.39  0.  0.  0.
441  4.40  0.  0.  0.
442  4.41  0.  0.  0.
443  4.42  0.  0.  0.
444  4.43  0.  0.  0.
445  4.44  0.  0.  0.
446  4.45  0.  0.  0.
447  4.46  0.  0.  0.
448  4.47  0.  0.  0.
449  4.48  0.  0.  0.
450  4.49  0.  0.  0.
451  4.50  0.  0.  0.
452  4.51  0.  0.  0.
453  4.52  0.  0.  0.
454  4.53  0.  0.  0.
455  4.54  0.  0.  0.
456  4.55  0.  0.  0.
457  4.56  0.  0.  0.
458  4.57  0.  0.  0.
459  4.58  0.  0.  0.
460  4.59  0.  0.  0.
461  4.60  0.  0.  0.
462  4.61  0.  0.  0.
463  4.62  0.  0.  0.
464  4.63  0.  0.  0.
465  4.64  0.  0.  0.
466  4.65  0.  0.  0.
467  4.66  0.  0.  0.
468  4.67  0.  0.  0.
469  4.68  0.  0.  0.
470  4.69  0.  0.  0.
471  4.70  0.  0.  0.
472  4.71  0.  0.  0.
473  4.72  0.  0.  0.
474  4.73  0.  0.  0.
475  4.74  0.  0.  0.
476  4.75  0.  0.  0.
477  4.76  0.  0.  0.
478  4.77  0.  0.  0.
479  4.78  0.  0.  0.
480  4.79  0.  0.  0.
481  4.80  0.  0.  0.
482  4.81  0.  0.  0.
483  4.82  0.  0.  0.
484  4.83  0.  0.  0.
485  4.84  0.  0.  0.
486  4.85  0.  0.  0.
487  4.86  0.  0.  0.
488  4.87  0.  0.  0.
489  4.88  0.  0.  0.
490  4.89  0.  0.  0.
491  4.90  0.  0.  0.
492  4.91  0.  0.  0.
493  4.92  0.  0.  0.
494  4.93  0.  0.  0.
495  4.94  0.  0.  0.
496  4.95  0.  0.  0.
497  4.96  0.  0.  0.
498  4.97  0.  0.  0.
499  4.98  0.  0.  0.
500  4.99  0.  0.  0.
501  5.00  0.  0.  0.
502  5.01  0.  0.  0.
503  5.02  0.  0.  0.
504  5.03  0.  0.  0.
505  5.04  0.  0.  0.
506  5.05  0.  0.  0.
507  5.06  0.  0.  0.
508  5.07  0.  0.  0.
509  5.08  0.  0.  0.
510  5.09  0.  0.  0.
511  5.10  0.  0.  0.
512  5.11  0.  0.  0.
513  5.12  0.  0.  0.
514  5.13  0.  0.  0.
515  5.14  0.  0.  0.
516  5.15  0.  0.  0.
517  5.16  0.  0.  0.
518  5.17  0.  0.  0.
519  5.18  0.  0.  0.
520  5.19  0.  0.  0.
521  5.20  0.  0.  0.
522  5.21  0.  0.  0.
523  5.22  0.  0.  0.
524  5.23  0.  0.  0.
525  5.24  0.  0.  0.
526  5.25  0.  0.  0.
527  5.26  0.  0.  0.
528  5.27  0.  0.  0.
529  5.28  0.  0.  0.
530  5.29  0.  0.  0.
531  5.30  0.  0.  0.
532  5.31  0.  0.  0.
533  5.32  0.  0.  0.
534  5.33  0.  0.  0.
535  5.34  0.  0.  0.
536  5.35  0.  0.  0.
537  5.36  0.  0.  0.
538  5.37  0.  0.  0.
539  5.38  0.  0.  0.
540  5.39  0.  0.  0.
541  5.40  0.  0.  0.
542  5.41  0.  0.  0.
543  5.42  0.  0.  0.
544  5.43  0.  0.  0.
545  5.44  0.  0.  0.
546  5.45  0.  0.  0.
547  5.46  0.  0.  0.
548  5.47  0.  0.  0.
549  5.48  0.  0.  0.
550  5.49  0.  0.  0.
551  5.50  0.  0.  0.
552  5.51  0.  0.  0.
553  5.52  0.  0.  0.
554  5.53  0.  0.  0.
555  5.54  0.  0.  0.
556  5.55  0.  0.  0.
557  5.56  0.  0.  0.
558  5.57  0.  0.  0.
559  5.58  0.  0.  0.
560  5.59  0.  0.  0.
561  5.60  0.  0.  0.
562  5.61  0.  0.  0.
563  5.62  0.  0.  0.
564  5.63  0.  0.  0.
565  5.64  0.  0.  0.
566  5.65  0.  0.  0.
567  5.66  0.  0.  0.
568  5.67  0.  0.  0.
569  5.68  0.  0.  0.
570  5.69  0.  0.  0.
571  5.70  0.  0.  0.
572  5.71  0.  0.  0.
573  5.72  0.  0.  0.
574  5.73  0.  0.  0.
575  5.74  0.  0.  0.
576  5.75  0.  0.  0.
577  5.76  0.  0.  0.
578  5.77  0.  0.  0.
579  5.78  0.  0.  0.
580  5.79  0.  0.  0.
581  5.80  0.  0.  0.
582  5.81  0.  0.  0.
583  5.82  0.  0.  0.
584  5.83  0.  0.  0.
585  5.84  0.  0.  0.
586  5.85  0.  0.  0.
587  5.86  0.  0.  0.
588  5.87  0.  0.  0.
589  5.88  0.  0.  0.
590  5.89  0.  0.  0.
591  5.90  0.  0.  0.
592  5.91  0.  0.  0.
593  5.92  0.  0.  0.
594  5.93  0.  0.  0.
595  5.94  0.  0.  0.
596  5.95  0.  0.  0.
597  5.96  0.  0.  0.
598  5.97  0.  0.  0.
599  5.98  0.  0.  0.
600  5.99  0.  0.  0.
1                         6.5814064817365E+00  5.7264843985300E-01
1  0.0000000000000E+00  7.1916319427379E-09 -3.4762660083842E-08
2  1.0000000000000E-02  1.1900778505746E-03 -2.7130059170462E-03
3  2.0000000000000E-02  4.7482631983591E-03 -1.0797385881320E-02
4  3.0000000000000E-02  1.0638630482392E-02 -2.4090294416450E-02
5  4.0000000000000E-02  1.8802029722556E-02 -4.2323861680114E-02
6  5.0000000000000E-02  2.9157160779340E-02 -6.5130431615648E-02
7  6.0000000000000E-02  4.1602048256159E-02 -9.2049755163169E-02
8  7.0000000000000E-02  5.6015888639034E-02 -1.2253800145400E-01
9  8.0000000000000E-02  7.2261234076836E-02 -1.5597841514954E-01
10  9.0000000000000E-02  9.0186470683295E-02 -1.9169341651361E-01
11  1.0000000000000E-01  1.0962854351350E-01 -2.2895791301705E-01
12  1.1000000000000E-01  1.3041587554137E-01 -2.6701356778510E-01
13  1.2000000000000E-01  1.5237142413342E-01 -3.0508375145575E-01
14  1.3000000000000E-01  1.7531581575190E-01 -3.4238889037867E-01
15  1.4000000000000E-01  1.9907049798273E-01 -3.7816191581218E-01
16  1.5000000000000E-01  2.2346084750299E-01 -4.1166351603959E-01
17  1.6000000000000E-01  2.4831917329375E-01 -4.4219689618897E-01
18  1.7000000000000E-01  2.7348755625551E-01 -4.6912175896720E-01
19  1.8000000000000E-01  2.9882046936707E-01 -4.9186723336995E-01
20  1.9000000000000E-01  3.2418712659048E-01 -5.0994349746495E-01
21  2.0000000000000E-01  3.4947351379456E-01 -5.2295186523148E-01
22  2.1000000000000E-01  3.7458406095531E-01 -5.3059313574870E-01
23  2.2000000000000E-01  3.9944292168501E-01 -5.3267403524939E-01
24  2.3000000000000E-01  4.2399483361976E-01 -5.2911161811272E-01
25  2.4000000000000E-01  4.4820554121862E-01 -5.1993553110978E-01
26  2.5000000000000E-01  4.7206177095023E-01 -5.0528808544227E-01
27  2.6000000000000E-01  4.9557075750578E-01 -4.8542212258442E-01
28  2.7000000000000E-01  5.1875932842068E-01 -4.6069670188746E-01
29  2.8000000000000E-01  5.4167256314533E-01 -4.3157067955253E-01
30  2.9000000000000E-01  5.6437205101406E-01 -3.9859428914353E-01
31  3.0000000000000E-01  5.8693378056105E-01 -3.6239887253380E-01
32  3.1000000000000E-01  6.0944570006751E-01 -3.2368494632337E-01
33  3.2000000000000E-01  6.3200499595219E-01 -2.8320882163828E-01
34  3.3000000000000E-01  6.5471514150407E-01 -2.4176802419247E-01
35  3.4000000000000E-01  6.7768277338460E-01 -2.0018578599152E-01
36  3.5000000000000E-01  7.0101445719626E-01 -1.5929489959580E-01
37  3.6000000000000E-01  7.2481340614238E-01 -1.1992124004051E-01
38  3.7000000000000E-01  7.4917621832926E-01 -8.2867268027735E-02
39  3.8000000000000E-01  7.7418969854683E-01 -4.8895830661869E-02
40  3.9000000000000E-01  7.9992782939112E-01 -1.8714572701220E-02
41  4.0000000000000E-01  8.2644895436952E-01  7.0387379351767E-03
42  4.1000000000000E-01  8.5379323218734E-01  2.7809681709511E-02
43  4.2000000000000E-01  8.8198041680656E-01  4.3139187971393E-02
44  4.3000000000000E-01  9.1100801217110E-01  5.2673822181798E-02
45  4.4000000000000E-01  9.4084984380413E-01  5.6174148227750E-02
46  4.5000000000000E-01  9.7145508192086E-01  5.3520989063065E-02