Sm    ONCVPSP-4.0.1  r_core=   2.00717   1.60864   1.90196   1.60864
62.0000     16.0000      230302    zatom,zion,pspd
8      11   3     4   600     0    pspcod,pspxc,lmax,lloc,mmax,r2well
5.99000000  4.00000000  0.00000000    rchrg fchrg qchrg
2     2     2     2     0    nproj
1     1           extension_switch
0                         6.9408228428856E+00  4.7740550560558E-01
1  0.0000000000000E+00  7.6863959641571E-11 -3.4304995649714E-10
2  1.0000000000000E-02  3.9531695869615E-02 -4.2122051211338E-03
3  2.0000000000000E-02  7.9045779556453E-02 -8.4679908628095E-03
4  3.0000000000000E-02  1.1852446232822E-01 -1.2810194183529E-02
5  4.0000000000000E-02  1.5794960439575E-01 -1.7280173120242E-02
6  5.0000000000000E-02  1.9730254447036E-01 -2.1917088245892E-02
7  6.0000000000000E-02  2.3656393536919E-01 -2.6757208983561E-02
8  7.0000000000000E-02  2.7571358759349E-01 -3.1833252656261E-02
9  8.0000000000000E-02  3.1473032272817E-01 -3.7173763808360E-02
10  9.0000000000000E-02  3.5359183841570E-01 -4.2802540912164E-02
11  1.0000000000000E-01  3.9227458654636E-01 -4.8738117075593E-02
12  1.1000000000000E-01  4.3075366617862E-01 -5.4993300799369E-02
13  1.2000000000000E-01  4.6900273256167E-01 -6.1574782199948E-02
14  1.3000000000000E-01  5.0699392347592E-01 -6.8482809424502E-02
15  1.4000000000000E-01  5.4469780394021E-01 -7.5710939242862E-02
16  1.5000000000000E-01  5.8208333015623E-01 -8.3245865016667E-02
17  1.6000000000000E-01  6.1911783337437E-01 -9.1067324425171E-02
18  1.7000000000000E-01  6.5576702417181E-01 -9.9148088479390E-02
19  1.8000000000000E-01  6.9199501743526E-01 -1.0745403248922E-01
20  1.9000000000000E-01  7.2776437813932E-01 -1.1594428877165E-01
21  2.0000000000000E-01  7.6303618780873E-01 -1.2457148001016E-01
22  2.1000000000000E-01  7.9777013135070E-01 -1.3328203130580E-01
23  2.2000000000000E-01  8.3192460374416E-01 -1.4201655810732E-01
24  2.3000000000000E-01  8.6545683587806E-01 -1.5071032638092E-01
25  2.4000000000000E-01  8.9832303864231E-01 -1.5929378058720E-01
26  2.5000000000000E-01  9.3047856419480E-01 -1.6769313428294E-01
27  2.6000000000000E-01  9.6187808315775E-01 -1.7583101746604E-01
28  2.7000000000000E-01  9.9247577633794E-01 -1.8362717414007E-01
29  2.8000000000000E-01  1.0222255394198E+00 -1.9099920299897E-01
30  2.9000000000000E-01  1.0510811989494E+00 -1.9786333362660E-01
31  3.0000000000000E-01  1.0789967378127E+00 -2.0413523017752E-01
32  3.1000000000000E-01  1.1059265283111E+00 -2.0973081415870E-01
33  3.2000000000000E-01  1.1318255708611E+00 -2.1456709767017E-01
34  3.3000000000000E-01  1.1566497362773E+00 -2.1856301829086E-01
35  3.4000000000000E-01  1.1803560095626E+00 -2.2164026671427E-01
36  3.5000000000000E-01  1.2029027330990E+00 -2.2372409825054E-01
37  3.6000000000000E-01  1.2242498471376E+00 -2.2474411941586E-01
38  3.7000000000000E-01  1.2443591254965E+00 -2.2463504102728E-01
39  3.8000000000000E-01  1.2631944044185E+00 -2.2333738950981E-01
40  3.9000000000000E-01  1.2807218025920E+00 -2.2079816849943E-01
41  4.0000000000000E-01  1.2969099304182E+00 -2.1697146328886E-01
42  4.1000000000000E-01  1.3117300866985E+00 -2.1181898120681E-01
43  4.2000000000000E-01  1.3251564410296E+00 -2.0531052164196E-01
44  4.3000000000000E-01  1.3371662003191E+00 -1.9742437011380E-01
45  4.4000000000000E-01  1.3477397579776E+00 -1.8814761154716E-01
46  4.5000000000000E-01  1.3568608245012E+00 -1.7747635871785E-01
47  4.6000000000000E-01  1.3645165383220E+00 -1.6541589269696E-01
48  4.7000000000000E-01  1.3706975559880E+00 -1.5198071301994E-01
49  4.8000000000000E-01  1.3753981209168E+00 -1.3719449623704E-01
50  4.9000000000000E-01  1.3786161101644E+00 -1.2108996245306E-01
51  5.0000000000000E-01  1.3803530588472E+00 -1.0370865042724E-01
52  5.1000000000000E-01  1.3806141620592E+00 -8.5100602768894E-02
53  5.2000000000000E-01  1.3794082543270E+00 -6.5323963720925E-02
54  5.3000000000000E-01  1.3767477668501E+00 -4.4444492961256E-02
55  5.4000000000000E-01  1.3726486629685E+00 -2.2534999761866E-02
56  5.5000000000000E-01  1.3671303524973E+00  3.2529728309663E-04
57  5.6000000000000E-01  1.3602155857513E+00  2.4051478924215E-02
58  5.7000000000000E-01  1.3519303282636E+00  4.8553695514668E-02
59  5.8000000000000E-01  1.3423036173655E+00  7.3737991352465E-02
60  5.9000000000000E-01  1.3313674019541E+00  9.9507174968335E-02
61  6.0000000000000E-01  1.3191563669117E+00  1.2576172667145E-01
62  6.1000000000000E-01  1.3057077437698E+00  1.5240073419849E-01
63  6.2000000000000E-01  1.2910611093190E+00  1.7932284693928E-01
64  6.3000000000000E-01  1.2752581739570E+00  2.0642723893420E-01
65  6.4000000000000E-01  1.2583425616457E+00  2.3361457066140E-01
66  6.5000000000000E-01  1.2403595833974E+00  2.6078793955502E-01
67  6.6000000000000E-01  1.2213560062515E+00  2.8785380922488E-01
68  6.7000000000000E-01  1.2013798197160E+00  3.1472290747849E-01
69  6.8000000000000E-01  1.1804800016460E+00  3.4131108348217E-01
70  6.9000000000000E-01  1.1587062855095E+00  3.6754011473308E-01
71  7.0000000000000E-01  1.1361089309469E+00  3.9333845494949E-01
72  7.1000000000000E-01  1.1127384994732E+00  4.1864191451447E-01
73  7.2000000000000E-01  1.0886456370911E+00  4.4339426572609E-01
74  7.3000000000000E-01  1.0638808654919E+00  4.6754776580881E-01
75  7.4000000000000E-01  1.0384943834078E+00  4.9106359141704E-01
76  7.5000000000000E-01  1.0125358795588E+00  5.1391217920801E-01
77  7.6000000000000E-01  9.8605435849699E-01  5.3607346796578E-01
78  7.7000000000000E-01  9.5909798050578E-01  5.5753703871460E-01
79  7.8000000000000E-01  9.3171391655407E-01  5.7830215025535E-01
80  7.9000000000000E-01  9.0394821913968E-01  5.9837766858687E-01
81  8.0000000000000E-01  8.7584570968736E-01  6.1778188971931E-01
82  8.1000000000000E-01  8.4744988299212E-01  6.3654225644355E-01
83  8.2000000000000E-01  8.1880282902310E-01  6.5469497067403E-01
84  8.3000000000000E-01  7.8994517222769E-01  6.7228450402341E-01
85  8.4000000000000E-01  7.6091602830214E-01  6.8936301028599E-01
86  8.5000000000000E-01  7.3175297822556E-01  7.0598964449009E-01
87  8.6000000000000E-01  7.0249205918996E-01  7.2222979412136E-01
88  8.7000000000000E-01  6.7316777190319E-01  7.3815422900565E-01
89  8.8000000000000E-01  6.4381310359338E-01  7.5383817716685E-01
90  8.9000000000000E-01  6.1445956590665E-01  7.6936033473212E-01
91  9.0000000000000E-01  5.8513724676382E-01  7.8480181863657E-01
92  9.1000000000000E-01  5.5587487512869E-01  8.0024507147799E-01
93  9.2000000000000E-01  5.2669989754041E-01  8.1577272838260E-01
94  9.3000000000000E-01  4.9763856517666E-01  8.3146645616219E-01
95  9.4000000000000E-01  4.6871603014288E-01  8.4740577536827E-01
96  9.5000000000000E-01  4.3995644962580E-01  8.6366687607891E-01
97  9.6000000000000E-01  4.1138309650737E-01  8.8032143838782E-01
98  9.7000000000000E-01  3.8301847500730E-01  8.9743546860456E-01
99  9.8000000000000E-01  3.5488443990815E-01  9.1506816212063E-01
100  9.9000000000000E-01  3.2700231791654E-01  9.3327080375227E-01
101  1.0000000000000E+00  2.9939302972529E-01  9.5208571614154E-01
102  1.0100000000000E+00  2.7207721136453E-01  9.7154526648653E-01
103  1.0200000000000E+00  2.4507533346292E-01  9.9167094148723E-01
104  1.0300000000000E+00  2.1840781708225E-01  1.0124724999397E+00
105  1.0400000000000E+00  1.9209514483822E-01  1.0339472118985E+00
106  1.0500000000000E+00  1.6615796607592E-01  1.0560791927617E+00
107  1.0600000000000E+00  1.4061719492839E-01  1.0788388400177E+00
108  1.0700000000000E+00  1.1549410015002E-01  1.1021823797536E+00
109  1.0800000000000E+00  9.0810385680686E-02  1.1260515293391E+00
110  1.0900000000000E+00  6.6588260961442E-02  1.1503732820138E+00
111  1.1000000000000E+00  4.2850500085408E-02  1.1750598183906E+00
112  1.1100000000000E+00  1.9620488928542E-02  1.2000085491787E+00
113  1.1200000000000E+00 -3.0777405381191E-03  1.2251022927149E+00
114  1.1300000000000E+00 -2.5219489500225E-02  1.2502095901859E+00
115  1.1400000000000E+00 -4.6779385813638E-02  1.2751851607300E+00
116  1.1500000000000E+00 -6.7731392434712E-02  1.2998704979207E+00
117  1.1600000000000E+00 -8.8048831385116E-02  1.3240946084722E+00
118  1.1700000000000E+00 -1.0770442383625E-01  1.3476748933484E+00
119  1.1800000000000E+00 -1.2667034687024E-01  1.3704181708228E+00
120  1.1900000000000E+00 -1.4491830744891E-01  1.3921218404017E+00
121  1.2000000000000E+00 -1.6241963409882E-01  1.4125751859001E+00
122  1.2100000000000E+00 -1.7914538679630E-01  1.4315608153268E+00
123  1.2200000000000E+00 -1.9506648550986E-01  1.4488562345924E+00
124  1.2300000000000E+00 -2.1015385782576E-01  1.4642355513876E+00
125  1.2400000000000E+00 -2.2437860604183E-01  1.4774713048657E+00
126  1.2500000000000E+00 -2.3771219406241E-01  1.4883364160083E+00
127  1.2600000000000E+00 -2.5012665435899E-01  1.4966062527130E+00
128  1.2700000000000E+00 -2.6159481517185E-01  1.5020608027186E+00
129  1.2800000000000E+00 -2.7209054801416E-01  1.5044869464382E+00
130  1.2900000000000E+00 -2.8158903539582E-01  1.5036808205968E+00
131  1.3000000000000E+00 -2.9006705850329E-01  1.4994502622225E+00
132  1.3100000000000E+00 -2.9750330435032E-01  1.4916173210073E+00
133  1.3200000000000E+00 -3.0387869164495E-01  1.4800208263080E+00
134  1.3300000000000E+00 -3.0917671429353E-01  1.4645189930453E+00
135  1.3400000000000E+00 -3.1338380107760E-01  1.4449920484784E+00
136  1.3500000000000E+00 -3.1648968958854E-01  1.4213448592423E+00
137  1.3600000000000E+00 -3.1848781197535E-01  1.3935095350761E+00
138  1.3700000000000E+00 -3.1937568945270E-01  1.3614479823461E+00
139  1.3800000000000E+00 -3.1915533181530E-01  1.3251543767103E+00
140  1.3900000000000E+00 -3.1783363741073E-01  1.2846575200699E+00
141  1.4000000000000E+00 -3.1542278811786E-01  1.2400230422378E+00
142  1.4100000000000E+00 -3.1194063286341E-01  1.1913554025079E+00
143  1.4200000000000E+00 -3.0741105207322E-01  1.1387996404965E+00
144  1.4300000000000E+00 -3.0186429418423E-01  1.0825428191649E+00
145  1.4400000000000E+00 -2.9533727394468E-01  1.0228150958618E+00
146  1.4500000000000E+00 -2.8787382066916E-01  9.5989034937033E-01
147  1.4600000000000E+00 -2.7952486291040E-01  8.9408628240119E-01
148  1.4700000000000E+00 -2.7034853413368E-01  8.2576390959466E-01
149  1.4800000000000E+00 -2.6041018192959E-01  7.5532633087660E-01
150  1.4900000000000E+00 -2.4978226106243E-01  6.8321667887275E-01
151  1.5000000000000E+00 -2.3854408822465E-01  6.0991511702378E-01
152  1.5100000000000E+00 -2.2678143372730E-01  5.3593475193477E-01
153  1.5200000000000E+00 -2.1458592249774E-01  4.6181630930519E-01
154  1.5300000000000E+00 -2.0205421367501E-01  3.8812140750096E-01
155  1.5400000000000E+00 -1.8928692476378E-01  3.1542424631026E-01
156  1.5500000000000E+00 -1.7638726272598E-01  2.4430151065036E-01
157  1.5600000000000E+00 -1.6345932053949E-01  1.7532026987731E-01
158  1.5700000000000E+00 -1.5060599362025E-01  1.0902363281891E-01
159  1.5800000000000E+00 -1.3792646607514E-01  4.5913896628969E-02
160  1.5900000000000E+00 -1.2551321013192E-01 -1.3567109840349E-02
161  1.6000000000000E+00 -1.1344846482792E-01 -6.9060605423088E-02
162  1.6100000000000E+00 -1.0179998014366E-01 -1.2031781605082E-01
163  1.6200000000000E+00 -9.0617855384523E-02 -1.6721737059049E-01
164  1.6300000000000E+00 -7.9940337671245E-02 -2.0971549756151E-01
165  1.6400000000000E+00 -6.9800493113458E-02 -2.4779338263575E-01
166  1.6500000000000E+00 -6.0226363988804E-02 -2.8145551269534E-01
167  1.6600000000000E+00 -5.1240923160243E-02 -3.1072966059433E-01
168  1.6700000000000E+00 -4.2862034191680E-02 -3.3566694232533E-01
169  1.6800000000000E+00 -3.5102448410216E-02 -3.5634169824659E-01
170  1.6900000000000E+00 -2.7969842187629E-02 -3.7285117529651E-01
171  1.7000000000000E+00 -2.1466893257070E-02 -3.8531501914706E-01
172  1.7100000000000E+00 -1.5591395706709E-02 -3.9387457798429E-01
173  1.7200000000000E+00 -1.0336412884157E-02 -3.9869202176679E-01
174  1.7300000000000E+00 -5.6904671854967E-03 -3.9994928195734E-01
175  1.7400000000000E+00 -1.6377651136703E-03 -3.9784682009747E-01
176  1.7500000000000E+00  1.8415438181005E-03 -3.9260223177190E-01
177  1.7600000000000E+00  4.7710757147518E-03 -3.8444869165152E-01
178  1.7700000000000E+00  7.1778947139610E-03 -3.7363327746423E-01
179  1.7800000000000E+00  9.0921641237567E-03 -3.6041513453050E-01
180  1.7900000000000E+00  1.0546777485295E-02 -3.4506355090703E-01
181  1.8000000000000E+00  1.1576967427907E-02 -3.2785592358637E-01
182  1.8100000000000E+00  1.2219897387479E-02 -3.0907564405451E-01
183  1.8200000000000E+00  1.2514239491830E-02 -2.8900991939136E-01
184  1.8300000000000E+00  1.2499742185302E-02 -2.6794754665972E-01
185  1.8400000000000E+00  1.2216791324471E-02 -2.4617665922316E-01
186  1.8500000000000E+00  1.1705968567475E-02 -2.2398246410253E-01
187  1.8600000000000E+00  1.1007610898444E-02 -2.0164498954952E-01
188  1.8700000000000E+00  1.0161376199797E-02 -1.7943686618973E-01
189  1.8800000000000E+00  9.2058101834584E-03 -1.5762112799445E-01
190  1.8900000000000E+00  8.1779465900600E-03 -1.3644916026947E-01
191  1.9000000000000E+00  7.1129043239051E-03 -1.1615865737640E-01
192  1.9100000000000E+00  6.0431187885223E-03 -9.6970211696037E-02
193  1.9200000000000E+00  4.9961320997764E-03 -7.9078181349170E-02
194  1.9300000000000E+00  3.9988355753252E-03 -6.2666714492159E-02
195  1.9400000000000E+00  3.0766652476708E-03 -4.7906499164663E-02
196  1.9500000000000E+00  2.2510022141218E-03 -3.4944492113007E-02
197  1.9600000000000E+00  1.5393354406191E-03 -2.3904210348388E-02
198  1.9700000000000E+00  9.5500766496845E-04 -1.4884501347966E-02
199  1.9800000000000E+00  5.0723152402012E-04 -7.9616322435327E-03
200  1.9900000000000E+00  1.9880770674599E-04 -3.1528754421860E-03
201  2.0000000000000E+00  3.8051299178061E-05 -6.1245813363580E-04
202  2.0100000000000E+00 -4.0594548697541E-06  6.6003333610151E-05
203  2.0200000000000E+00  3.7389770481858E-07 -6.0321191709544E-06
204  2.03  0. -0.
205  2.04 -0.  0.
206  2.05 -0.  0.
207  2.06  0.  0.
208  2.07  0.  0.
209  2.08  0.  0.
210  2.09  0.  0.
211  2.10  0.  0.
212  2.11  0.  0.
213  2.12  0.  0.
214  2.13  0.  0.
215  2.14  0.  0.
216  2.15  0.  0.
217  2.16  0.  0.
218  2.17  0.  0.
219  2.18  0.  0.
220  2.19  0.  0.
221  2.20  0.  0.
222  2.21  0.  0.
223  2.22  0.  0.
224  2.23  0.  0.
225  2.24  0.  0.
226  2.25  0.  0.
227  2.26  0.  0.
228  2.27  0.  0.
229  2.28  0.  0.
230  2.29  0.  0.
231  2.30  0.  0.
232  2.31  0.  0.
233  2.32  0.  0.
234  2.33  0.  0.
235  2.34  0.  0.
236  2.35  0.  0.
237  2.36  0.  0.
238  2.37  0.  0.
239  2.38  0.  0.
240  2.39  0.  0.
241  2.40  0.  0.
242  2.41  0.  0.
243  2.42  0.  0.
244  2.43  0.  0.
245  2.44  0.  0.
246  2.45  0.  0.
247  2.46  0.  0.
248  2.47  0.  0.
249  2.48  0.  0.
250  2.49  0.  0.
251  2.50  0.  0.
252  2.51  0.  0.
253  2.52  0.  0.
254  2.53  0.  0.
255  2.54  0.  0.
256  2.55  0.  0.
257  2.56  0.  0.
258  2.57  0.  0.
259  2.58  0.  0.
260  2.59  0.  0.
261  2.60  0.  0.
262  2.61  0.  0.
263  2.62  0.  0.
264  2.63  0.  0.
265  2.64  0.  0.
266  2.65  0.  0.
267  2.66  0.  0.
268  2.67  0.  0.
269  2.68  0.  0.
270  2.69  0.  0.
271  2.70  0.  0.
272  2.71  0.  0.
273  2.72  0.  0.
274  2.73  0.  0.
275  2.74  0.  0.
276  2.75  0.  0.
277  2.76  0.  0.
278  2.77  0.  0.
279  2.78  0.  0.
280  2.79  0.  0.
281  2.80  0.  0.
282  2.81  0.  0.
283  2.82  0.  0.
284  2.83  0.  0.
285  2.84  0.  0.
286  2.85  0.  0.
287  2.86  0.  0.
288  2.87  0.  0.
289  2.88  0.  0.
290  2.89  0.  0.
291  2.90  0.  0.
292  2.91  0.  0.
293  2.92  0.  0.
294  2.93  0.  0.
295  2.94  0.  0.
296  2.95  0.  0.
297  2.96  0.  0.
298  2.97  0.  0.
299  2.98  0.  0.
300  2.99  0.  0.
301  3.00  0.  0.
302  3.01  0.  0.
303  3.02  0.  0.
304  3.03  0.  0.
305  3.04  0.  0.
306  3.05  0.  0.
307  3.06  0.  0.
308  3.07  0.  0.
309  3.08  0.  0.
310  3.09  0.  0.
311  3.10  0.  0.
312  3.11  0.  0.
313  3.12  0.  0.
314  3.13  0.  0.
315  3.14  0.  0.
316  3.15  0.  0.
317  3.16  0.  0.
318  3.17  0.  0.
319  3.18  0.  0.
320  3.19  0.  0.
321  3.20  0.  0.
322  3.21  0.  0.
323  3.22  0.  0.
324  3.23  0.  0.
325  3.24  0.  0.
326  3.25  0.  0.
327  3.26  0.  0.
328  3.27  0.  0.
329  3.28  0.  0.
330  3.29  0.  0.
331  3.30  0.  0.
332  3.31  0.  0.
333  3.32  0.  0.
334  3.33  0.  0.
335  3.34  0.  0.
336  3.35  0.  0.
337  3.36  0.  0.
338  3.37  0.  0.
339  3.38  0.  0.
340  3.39  0.  0.
341  3.40  0.  0.
342  3.41  0.  0.
343  3.42  0.  0.
344  3.43  0.  0.
345  3.44  0.  0.
346  3.45  0.  0.
347  3.46  0.  0.
348  3.47  0.  0.
349  3.48  0.  0.
350  3.49  0.  0.
351  3.50  0.  0.
352  3.51  0.  0.
353  3.52  0.  0.
354  3.53  0.  0.
355  3.54  0.  0.
356  3.55  0.  0.
357  3.56  0.  0.
358  3.57  0.  0.
359  3.58  0.  0.
360  3.59  0.  0.
361  3.60  0.  0.
362  3.61  0.  0.
363  3.62  0.  0.
364  3.63  0.  0.
365  3.64  0.  0.
366  3.65  0.  0.
367  3.66  0.  0.
368  3.67  0.  0.
369  3.68  0.  0.
370  3.69  0.  0.
371  3.70  0.  0.
372  3.71  0.  0.
373  3.72  0.  0.
374  3.73  0.  0.
375  3.74  0.  0.
376  3.75  0.  0.
377  3.76  0.  0.
378  3.77  0.  0.
379  3.78  0.  0.
380  3.79  0.  0.
381  3.80  0.  0.
382  3.81  0.  0.
383  3.82  0.  0.
384  3.83  0.  0.
385  3.84  0.  0.
386  3.85  0.  0.
387  3.86  0.  0.
388  3.87  0.  0.
389  3.88  0.  0.
390  3.89  0.  0.
391  3.90  0.  0.
392  3.91  0.  0.
393  3.92  0.  0.
394  3.93  0.  0.
395  3.94  0.  0.
396  3.95  0.  0.
397  3.96  0.  0.
398  3.97  0.  0.
399  3.98  0.  0.
400  3.99  0.  0.
401  4.00  0.  0.
402  4.01  0.  0.
403  4.02  0.  0.
404  4.03  0.  0.
405  4.04  0.  0.
406  4.05  0.  0.
407  4.06  0.  0.
408  4.07  0.  0.
409  4.08  0.  0.
410  4.09  0.  0.
411  4.10  0.  0.
412  4.11  0.  0.
413  4.12  0.  0.
414  4.13  0.  0.
415  4.14  0.  0.
416  4.15  0.  0.
417  4.16  0.  0.
418  4.17  0.  0.
419  4.18  0.  0.
420  4.19  0.  0.
421  4.20  0.  0.
422  4.21  0.  0.
423  4.22  0.  0.
424  4.23  0.  0.
425  4.24  0.  0.
426  4.25  0.  0.
427  4.26  0.  0.
428  4.27  0.  0.
429  4.28  0.  0.
430  4.29  0.  0.
431  4.30  0.  0.
432  4.31  0.  0.
433  4.32  0.  0.
434  4.33  0.  0.
435  4.34  0.  0.
436  4.35  0.  0.
437  4.36  0.  0.
438  4.37  0.  0.
439  4.38  0.  0.
440  4.39  0.  0.
441  4.40  0.  0.
442  4.41  0.  0.
443  4.42  0.  0.
444  4.43  0.  0.
445  4.44  0.  0.
446  4.45  0.  0.
447  4.46  0.  0.
448  4.47  0.  0.
449  4.48  0.  0.
450  4.49  0.  0.
451  4.50  0.  0.
452  4.51  0.  0.
453  4.52  0.  0.
454  4.53  0.  0.
455  4.54  0.  0.
456  4.55  0.  0.
457  4.56  0.  0.
458  4.57  0.  0.
459  4.58  0.  0.
460  4.59  0.  0.
461  4.60  0.  0.
462  4.61  0.  0.
463  4.62  0.  0.
464  4.63  0.  0.
465  4.64  0.  0.
466  4.65  0.  0.
467  4.66  0.  0.
468  4.67  0.  0.
469  4.68  0.  0.
470  4.69  0.  0.
471  4.70  0.  0.
472  4.71  0.  0.
473  4.72  0.  0.
474  4.73  0.  0.
475  4.74  0.  0.
476  4.75  0.  0.
477  4.76  0.  0.
478  4.77  0.  0.
479  4.78  0.  0.
480  4.79  0.  0.
481  4.80  0.  0.
482  4.81  0.  0.
483  4.82  0.  0.
484  4.83  0.  0.
485  4.84  0.  0.
486  4.85  0.  0.
487  4.86  0.  0.
488  4.87  0.  0.
489  4.88  0.  0.
490  4.89  0.  0.
491  4.90  0.  0.
492  4.91  0.  0.
493  4.92  0.  0.
494  4.93  0.  0.
495  4.94  0.  0.
496  4.95  0.  0.
497  4.96  0.  0.
498  4.97  0.  0.
499  4.98  0.  0.
500  4.99  0.  0.
501  5.00  0.  0.
502  5.01  0.  0.
503  5.02  0.  0.
504  5.03  0.  0.
505  5.04  0.  0.
506  5.05  0.  0.
507  5.06  0.  0.
508  5.07  0.  0.
509  5.08  0.  0.
510  5.09  0.  0.
511  5.10  0.  0.
512  5.11  0.  0.
513  5.12  0.  0.
514  5.13  0.  0.
515  5.14  0.  0.
516  5.15  0.  0.
517  5.16  0.  0.
518  5.17  0.  0.
519  5.18  0.  0.
520  5.19  0.  0.
521  5.20  0.  0.
522  5.21  0.  0.
523  5.22  0.  0.
524  5.23  0.  0.
525  5.24  0.  0.
526  5.25  0.  0.
527  5.26  0.  0.
528  5.27  0.  0.
529  5.28  0.  0.
530  5.29  0.  0.
531  5.30  0.  0.
532  5.31  0.  0.
533  5.32  0.  0.
534  5.33  0.  0.
535  5.34  0.  0.
536  5.35  0.  0.
537  5.36  0.  0.
538  5.37  0.  0.
539  5.38  0.  0.
540  5.39  0.  0.
541  5.40  0.  0.
542  5.41  0.  0.
543  5.42  0.  0.
544  5.43  0.  0.
545  5.44  0.  0.
546  5.45  0.  0.
547  5.46  0.  0.
548  5.47  0.  0.
549  5.48  0.  0.
550  5.49  0.  0.
551  5.50  0.  0.
552  5.51  0.  0.
553  5.52  0.  0.
554  5.53  0.  0.
555  5.54  0.  0.
556  5.55  0.  0.
557  5.56  0.  0.
558  5.57  0.  0.
559  5.58  0.  0.
560  5.59  0.  0.
561  5.60  0.  0.
562  5.61  0.  0.
563  5.62  0.  0.
564  5.63  0.  0.
565  5.64  0.  0.
566  5.65  0.  0.
567  5.66  0.  0.
568  5.67  0.  0.
569  5.68  0.  0.
570  5.69  0.  0.
571  5.70  0.  0.
572  5.71  0.  0.
573  5.72  0.  0.
574  5.73  0.  0.
575  5.74  0.  0.
576  5.75  0.  0.
577  5.76  0.  0.
578  5.77  0.  0.
579  5.78  0.  0.
580  5.79  0.  0.
581  5.80  0.  0.
582  5.81  0.  0.
583  5.82  0.  0.
584  5.83  0.  0.
585  5.84  0.  0.
586  5.85  0.  0.
587  5.86  0.  0.
588  5.87  0.  0.
589  5.88  0.  0.
590  5.89  0.  0.
591  5.90  0.  0.
592  5.91  0.  0.
593  5.92  0.  0.
594  5.93  0.  0.
595  5.94  0.  0.
596  5.95  0.  0.
597  5.96  0.  0.
598  5.97  0.  0.
599  5.98  0.  0.
600  5.99  0.  0.
1                         4.8650127744247E+00  3.6645232122488E-01
1  0.0000000000000E+00  8.3214630741679E-09 -6.4643323055558E-08
2  1.0000000000000E-02  1.3632080150587E-03 -4.0914004804271E-03
3  2.0000000000000E-02  5.4388058785784E-03 -1.6268735694023E-02
4  3.0000000000000E-02  1.2184967467143E-02 -3.6243366627181E-02
5  4.0000000000000E-02  2.1532819086842E-02 -6.3540722552360E-02
6  5.0000000000000E-02  3.3387677207877E-02 -9.7509910411961E-02
7  6.0000000000000E-02  4.7630747562704E-02 -1.3733690641133E-01
8  7.0000000000000E-02  6.4121252654407E-02 -1.8206107423062E-01
9  8.0000000000000E-02  8.2698946400548E-02 -2.3059468962186E-01
10  9.0000000000000E-02  1.0318696710794E-01 -2.8174509258422E-01
11  1.0000000000000E-01  1.2539497338098E-01 -3.3423903692254E-01
12  1.1000000000000E-01  1.4912250203756E-01 -3.8674876377104E-01
13  1.2000000000000E-01  1.7416248274936E-01 -4.3791929143489E-01
14  1.3000000000000E-01  2.0030484102320E-01 -4.8639638932481E-01
15  1.4000000000000E-01  2.2734011935747E-01 -5.3085468931503E-01
16  1.5000000000000E-01  2.5506304598041E-01 -5.7002538383173E-01
17  1.6000000000000E-01  2.8327598151453E-01 -6.0272296647068E-01
18  1.7000000000000E-01  3.1179217619966E-01 -6.2787048784829E-01
19  1.8000000000000E-01  3.4043877390474E-01 -6.4452282640757E-01
20  1.9000000000000E-01  3.6905950399982E-01 -6.5188751054280E-01
21  2.0000000000000E-01  3.9751700815534E-01 -6.4934267400102E-01
22  2.1000000000000E-01  4.2569475617370E-01 -6.3645178022308E-01
23  2.2000000000000E-01  4.5349851290676E-01 -6.1297481210897E-01
24  2.3000000000000E-01  4.8085732702262E-01 -5.7887569049598E-01
25  2.4000000000000E-01  5.0772402169127E-01 -5.3432575618094E-01
26  2.5000000000000E-01  5.3407517698512E-01 -4.7970322525659E-01
27  2.6000000000000E-01  5.5991060375235E-01 -4.1558860446199E-01
28  2.7000000000000E-01  5.8525231872804E-01 -3.4275613071790E-01
29  2.8000000000000E-01  6.1014304050878E-01 -2.6216137556785E-01
30  2.9000000000000E-01  6.3464423554090E-01 -1.7492522942201E-01
31  3.0000000000000E-01  6.5883375227765E-01 -8.2314550894432E-02
32  3.1000000000000E-01  6.8280308996977E-01  1.4280168211459E-02
33  3.2000000000000E-01  7.0665435600699E-01  1.1336971283201E-01
34  3.3000000000000E-01  7.3049697217583E-01  2.1339316868726E-01
35  3.4000000000000E-01  7.5444419551451E-01  3.1274655679938E-01
36  3.5000000000000E-01  7.7860952352083E-01  4.0981254137053E-01
37  3.6000000000000E-01  8.0310305621885E-01  5.0299065046919E-01
38  3.7000000000000E-01  8.2802788895499E-01  5.9072743606389E-01
39  3.8000000000000E-01  8.5347660974068E-01  6.7154599784878E-01
40  3.9000000000000E-01  8.7952797347826E-01  7.4407430411746E-01
41  4.0000000000000E-01  9.0624382252109E-01  8.0707176254154E-01
42  4.1000000000000E-01  9.3366631877292E-01  8.5945352378353E-01
43  4.2000000000000E-01  9.6181554699877E-01  9.0031204089888E-01
44  4.3000000000000E-01  9.9068754229774E-01  9.2893545675644E-01
45  4.4000000000000E-01  1.0202527868969E+00  9.4482244934380E-01
46  4.5000000000000E-01  1.0504552127076E+00  9.4769322978126E-01
47  4.6000000000000E-01  1.0812117365997E+00  9.3749645895563E-01
48  4.7000000000000E-01  1.1124123452740E+00  9.1441192459628E-01
49  4.8000000000000E-01  1.1439207361301E+00  8.7884889994119E-01
50  4.9000000000000E-01  1.1755755098417E+00  8.3144018640662E-01
51  5.0000000000000E-01  1.2071918996599E+00  7.7303192435458E-01
52  5.1000000000000E-01  1.2385640119674E+00  7.0466933661292E-01
53  5.2000000000000E-01  1.2694675425166E+00  6.2757864731623E-01
54  5.3000000000000E-01  1.2996629232829E+00  5.4314549242040E-01
55  5.4000000000000E-01  1.3288988461414E+00  4.5289020648444E-01
56  5.5000000000000E-01  1.3569161018078E+00  3.5844043169193E-01
57  5.6000000000000E-01  1.3834516658158E+00  2.6150154840939E-01
58  5.7000000000000E-01  1.4082429578790E+00  1.6382547079112E-01
59  5.8000000000000E-01  1.4310321969090E+00  6.7178385164951E-02
60  5.9000000000000E-01  1.4515707713279E+00 -2.6691967543176E-02
61  6.0000000000000E-01  1.4696235431771E+00 -1.1608885176148E-01
62  6.1000000000000E-01  1.4849730049220E+00 -1.9939832519244E-01
63  6.2000000000000E-01  1.4974232097880E+00 -2.7511965104563E-01
64  6.3000000000000E-01  1.5068033999085E+00 -3.4189375313145E-01
65  6.4000000000000E-01  1.5129712614706E+00 -3.9852916566018E-01
66  6.5000000000000E-01  1.5158157423281E+00 -4.4402497342132E-01
67  6.6000000000000E-01  1.5152593750975E+00 -4.7759029161874E-01
68  6.7000000000000E-01  1.5112600574415E+00 -4.9865989705146E-01
69  6.8000000000000E-01  1.5038122509087E+00 -5.0690569244185E-01
70  6.9000000000000E-01  1.4929475701653E+00 -5.0224376223536E-01
71  7.0000000000000E-01  1.4787347455421E+00 -4.8483685973820E-01
72  7.1000000000000E-01  1.4612789533076E+00 -4.5509225049809E-01
73  7.2000000000000E-01  1.4407205197658E+00 -4.1365492380628E-01
74  7.3000000000000E-01  1.4172330169393E+00 -3.6139627145640E-01
75  7.4000000000000E-01  1.3910207790157E+00 -2.9939841881666E-01
76  7.5000000000000E-01  1.3623158796932E+00 -2.2893447621368E-01
77  7.6000000000000E-01  1.3313746208459E+00 -1.5144505701526E-01
78  7.7000000000000E-01  1.2984735923469E+00 -6.8511481135372E-02
79  7.8000000000000E-01  1.2639053712515E+00  1.8173852436425E-02
80  7.9000000000000E-01  1.2279739356890E+00  1.0683938431553E-01
81  8.0000000000000E-01  1.1909898745982E+00  1.9566801850973E-01
82  8.1000000000000E-01  1.1532654787506E+00  2.8283182962472E-01
83  8.2000000000000E-01  1.1151098012422E+00  3.6652720769284E-01
84  8.3000000000000E-01  1.0768237767471E+00  4.4500978272406E-01
85  8.4000000000000E-01  1.0386954882695E+00  5.1662847125919E-01
86  8.5000000000000E-01  1.0009956679151E+00  5.7985799973871E-01
87  8.6000000000000E-01  9.6397351436114E-01  6.3332928421269E-01
88  8.7000000000000E-01  9.2785290428444E-01  6.7585708240554E-01
89  8.8000000000000E-01  8.9282906812399E-01  7.0646438178593E-01
90  8.9000000000000E-01  8.5906579230707E-01  7.2440304523774E-01
91  9.0000000000000E-01  8.2669320062080E-01  7.2917030313628E-01
92  9.1000000000000E-01  7.9580615692443E-01  7.2052075589606E-01
93  9.2000000000000E-01  7.6646332006942E-01  6.9847363297572E-01
94  9.3000000000000E-01  7.3868686992978E-01  6.6331514141345E-01
95  9.4000000000000E-01  7.1246291106723E-01  6.1559582759256E-01
96  9.5000000000000E-01  6.8774254799627E-01  5.5612296841925E-01
97  9.6000000000000E-01  6.6444361350637E-01  4.8594810070485E-01
98  9.7000000000000E-01  6.4245301927900E-01  4.0634988854660E-01
99  9.8000000000000E-01  6.2162968633953E-01  3.1881261615797E-01
100  9.9000000000000E-01  6.0180800192259E-01  2.2500067631296E-01
101  1.0000000000000E+00  5.8280173932385E-01  1.2672950069304E-01
102  1.0100000000000E+00  5.6440836844671E-01  2.5933446564436E-02
103  1.0200000000000E+00  5.4641367720029E-01 -7.5368786943573E-02
104  1.0300000000000E+00  5.2859661781366E-01 -1.7511059126906E-01
105  1.0400000000000E+00  5.1073428762293E-01 -2.7121507084209E-01
106  1.0500000000000E+00  4.9260695104504E-01 -3.6163317180957E-01
107  1.0600000000000E+00  4.7400300834265E-01 -4.4438162100264E-01
108  1.0700000000000E+00  4.5472381742628E-01 -5.1757997953922E-01
109  1.0800000000000E+00  4.3458827733321E-01 -5.7948612877744E-01
110  1.0900000000000E+00  4.1343708612363E-01 -6.2852953229162E-01
111  1.1000000000000E+00  3.9113659166410E-01 -6.6334165560615E-01
112  1.1100000000000E+00  3.6758216105006E-01 -6.8278297510143E-01
113  1.1200000000000E+00  3.4270100306323E-01 -6.8596606747465E-01
114  1.1300000000000E+00  3.1645438800162E-01 -6.7227434096762E-01
115  1.1400000000000E+00  2.8883922014046E-01 -6.4137604699996E-01
116  1.1500000000000E+00  2.5988892995589E-01 -5.9323329569505E-01
117  1.1600000000000E+00  2.2967366563847E-01 -5.2810588797595E-01
118  1.1700000000000E+00  1.9829977634414E-01 -4.4654987046371E-01
119  1.1800000000000E+00  1.6590859259631E-01 -3.4941081387160E-01
120  1.1900000000000E+00  1.3267452224709E-01 -2.3781191082764E-01
121  1.2000000000000E+00  9.8802493005031E-02 -1.1313708199911E-01
122  1.2100000000000E+00  6.4524784619081E-02  2.2990630862059E-02
123  1.2200000000000E+00  3.0097305131845E-02  1.6873502155154E-01
124  1.2300000000000E+00 -4.2046241145526E-03  3.2207658468888E-01
125  1.2400000000000E+00 -3.8090900844342E-02  4.8084577827988E-01
126  1.2500000000000E+00 -7.1261609952015E-02  6.4275911187989E-01
127  1.2600000000000E+00 -1.0341223938680E-01  8.0545743833509E-01
128  1.2700000000000E+00 -1.3423905114525E-01  9.6654578804391E-01
129  1.2800000000000E+00 -1.6344451168742E-01  1.1236340577222E+00
130  1.2900000000000E+00 -1.9074268479474E-01  1.2743778508546E+00
131  1.3000000000000E+00 -2.1586449036508E-01  1.4165187648825E+00
132  1.3100000000000E+00 -2.3856273485440E-01  1.5479234305033E+00
133  1.3200000000000E+00 -2.5861682297573E-01  1.6666206309154E+00
134  1.3300000000000E+00 -2.7583706581375E-01  1.7708358631678E+00