Sm    ONCVPSP-4.0.1  r_core=   2.00717   1.60864   1.90196   1.78084
62.0000     16.0000      230315    zatom,zion,pspd
8      11   3     4   600     0    pspcod,pspxc,lmax,lloc,mmax,r2well
5.99000000  3.90000000  0.00000000    rchrg fchrg qchrg
2     2     2     2     0    nproj
1     1           extension_switch
0                         6.9373698415925E+00  4.6869100817669E-01
1  0.0000000000000E+00  7.3884176554628E-11 -3.3083321498983E-10
2  1.0000000000000E-02  3.9667718748234E-02 -4.8068111669979E-03
3  2.0000000000000E-02  7.9316962430266E-02 -9.6535532610992E-03
4  3.0000000000000E-02  1.1892908700154E-01 -1.4579445081302E-02
5  4.0000000000000E-02  1.5848511242760E-01 -1.9622289262480E-02
6  5.0000000000000E-02  1.9796555958719E-01 -2.4817784338670E-02
7  6.0000000000000E-02  2.3735029300026E-01 -3.0198860744108E-02
8  7.0000000000000E-02  2.7661837123504E-01 -3.5795048339196E-02
9  8.0000000000000E-02  3.1574790677436E-01 -4.1631882717746E-02
10  9.0000000000000E-02  3.5471593703065E-01 -4.7730357144357E-02
11  1.0000000000000E-01  3.9349830809109E-01 -5.4106426490919E-02
12  1.1000000000000E-01  4.3206957265240E-01 -6.0770568993850E-02
13  1.2000000000000E-01  4.7040290346742E-01 -6.7727411044169E-02
14  1.3000000000000E-01  5.0847002347614E-01 -7.4975419556799E-02
15  1.4000000000000E-01  5.4624115363288E-01 -8.2506665751060E-02
16  1.5000000000000E-01  5.8368497927002E-01 -9.0306663417088E-02
17  1.6000000000000E-01  6.2076863565965E-01 -9.8354283951927E-02
18  1.7000000000000E-01  6.5745771324828E-01 -1.0662174963129E-01
19  1.8000000000000E-01  6.9371628284922E-01 -1.1507470574718E-01
20  1.9000000000000E-01  7.2950694088336E-01 -1.2367237139640E-01
21  2.0000000000000E-01  7.6479087456392E-01 -1.3236776785857E-01
22  2.1000000000000E-01  7.9952794672658E-01 -1.4110802266393E-01
23  2.2000000000000E-01  8.3367679981450E-01 -1.4983474662901E-01
24  2.3000000000000E-01  8.6719497834008E-01 -1.5848448034101E-01
25  2.4000000000000E-01  9.0003906896406E-01 -1.6698920580811E-01
26  2.5000000000000E-01  9.3216485715902E-01 -1.7527691826959E-01
27  2.6000000000000E-01  9.6352749926023E-01 -1.8327225248639E-01
28  2.7000000000000E-01  9.9408170855386E-01 -1.9089715721412E-01
29  2.8000000000000E-01  1.0237819539124E+00 -1.9807161100604E-01
30  2.9000000000000E-01  1.0525826693603E+00 -2.0471437200634E-01
31  3.0000000000000E-01  1.0804384728422E+00 -2.1074375398200E-01
32  3.1000000000000E-01  1.1073043923705E+00 -2.1607842050757E-01
33  3.2000000000000E-01  1.1331360976503E+00 -2.2063818896639E-01
34  3.3000000000000E-01  1.1578901352225E+00 -2.2434483586618E-01
35  3.4000000000000E-01  1.1815241651211E+00 -2.2712289488988E-01
36  3.5000000000000E-01  1.2039971970191E+00 -2.2890043911412E-01
37  3.6000000000000E-01  1.2252698238360E+00 -2.2960983892991E-01
38  3.7000000000000E-01  1.2453044507921E+00 -2.2918848739076E-01
39  3.8000000000000E-01  1.2640655179327E+00 -2.2757948499226E-01
40  3.9000000000000E-01  1.2815197141959E+00 -2.2473227625205E-01
41  4.0000000000000E-01  1.2976361811732E+00 -2.2060323090542E-01
42  4.1000000000000E-01  1.3123867047956E+00 -2.1515616305781E-01
43  4.2000000000000E-01  1.3257458932906E+00 -2.0836278223367E-01
44  4.3000000000000E-01  1.3376913398707E+00 -2.0020307092785E-01
45  4.4000000000000E-01  1.3482037687538E+00 -1.9066558399425E-01
46  4.5000000000000E-01  1.3572671632630E+00 -1.7974766598810E-01
47  4.6000000000000E-01  1.3648688749152E+00 -1.6745558340769E-01
48  4.7000000000000E-01  1.3709997125775E+00 -1.5380456964825E-01
49  4.8000000000000E-01  1.3756540109491E+00 -1.3881878137807E-01
50  4.9000000000000E-01  1.3788296778152E+00 -1.2253116596374E-01
51  5.0000000000000E-01  1.3805282197041E+00 -1.0498324050075E-01
52  5.1000000000000E-01  1.3807547457790E+00 -8.6224783935197E-02
53  5.2000000000000E-01  1.3795179499850E+00 -6.6313444684841E-02
54  5.3000000000000E-01  1.3768300716665E+00 -4.5314267071928E-02
55  5.4000000000000E-01  1.3727068350644E+00 -2.3299140757738E-02
56  5.5000000000000E-01  1.3671673682823E+00 -3.4617820876579E-04
57  5.6000000000000E-01  1.3602341024955E+00  2.3460973980316E-02
58  5.7000000000000E-01  1.3519326523448E+00  4.8033883340725E-02
59  5.8000000000000E-01  1.3422916786190E+00  7.3280132117064E-02
60  5.9000000000000E-01  1.3313427344798E+00  9.9104162335132E-02
61  6.0000000000000E-01  1.3191200966178E+00  1.2540815696576E-01
62  6.1000000000000E-01  1.3056605828524E+00  1.5209294835122E-01
63  6.2000000000000E-01  1.2910033577933E+00  1.7905894469973E-01
64  6.3000000000000E-01  1.2751897282724E+00  2.0620706518456E-01
65  6.4000000000000E-01  1.2582629303270E+00  2.3343967401226E-01
66  6.5000000000000E-01  1.2402679095715E+00  2.6066150374877E-01
67  6.6000000000000E-01  1.2212510968279E+00  2.8778055821757E-01
68  6.7000000000000E-01  1.2012601809094E+00  3.1470898540879E-01
69  6.8000000000000E-01  1.1803438804430E+00  3.4136391106156E-01
70  6.9000000000000E-01  1.1585517166046E+00  3.6766822390337E-01
71  7.0000000000000E-01  1.1359337885990E+00  3.9355130394588E-01
72  7.1000000000000E-01  1.1125405536637E+00  4.1894968574232E-01
73  7.2000000000000E-01  1.0884226133024E+00  4.4380764910416E-01
74  7.3000000000000E-01  1.0636305073695E+00  4.6807773044578E-01
75  7.4000000000000E-01  1.0382145175221E+00  4.9172114867163E-01
76  7.5000000000000E-01  1.0122244814405E+00  5.1470814033070E-01
77  7.6000000000000E-01  9.8570961909295E-01  5.3701819963080E-01
78  7.7000000000000E-01  9.5871837217801E-01  5.5864021982306E-01
79  7.8000000000000E-01  9.3129825773500E-01  5.7957253342183E-01
80  7.9000000000000E-01  9.0349573675493E-01  5.9982284971177E-01
81  8.0000000000000E-01  8.7535609846671E-01  6.1940808899707E-01
82  8.1000000000000E-01  8.4692336080852E-01  6.3835411406299E-01
83  8.2000000000000E-01  8.1824018742969E-01  6.5669536033048E-01
84  8.3000000000000E-01  7.8934782140248E-01  6.7447436718602E-01
85  8.4000000000000E-01  7.6028603565987E-01  6.9174121394651E-01
86  8.5000000000000E-01  7.3109310001545E-01  7.0855286486565E-01
87  8.6000000000000E-01  7.0180576446631E-01  7.2497242849384E-01
88  8.7000000000000E-01  6.7245925833220E-01  7.4106833755807E-01
89  8.8000000000000E-01  6.4308730464377E-01  7.5691345632591E-01
90  8.9000000000000E-01  6.1372214906255E-01  7.7258412314754E-01
91  9.0000000000000E-01  5.8439460249526E-01  7.8815913652984E-01
92  9.1000000000000E-01  5.5513409645674E-01  8.0371869367524E-01
93  9.2000000000000E-01  5.2596875013968E-01  8.1934329091711E-01
94  9.3000000000000E-01  4.9692544806628E-01  8.3511259589434E-01
95  9.4000000000000E-01  4.6802992712707E-01  8.5110430162948E-01
96  9.5000000000000E-01  4.3930687175558E-01  8.6739297290849E-01
97  9.6000000000000E-01  4.1078001594462E-01  8.8404889550004E-01
98  9.7000000000000E-01  3.8247225077987E-01  9.0113693880554E-01
99  9.8000000000000E-01  3.5440573614942E-01  9.1871544249488E-01
100  9.9000000000000E-01  3.2660201528225E-01  9.3683513756248E-01
101  1.0000000000000E+00  2.9908213077532E-01  9.5553811203735E-01
102  1.0100000000000E+00  2.7186674078441E-01  9.7485683130399E-01
103  1.0200000000000E+00  2.4497623407981E-01  9.9481322264434E-01
104  1.0300000000000E+00  2.1843084270083E-01  1.0154178332003E+00
105  1.0400000000000E+00  1.9225075098305E-01  1.0366690700896E+00
106  1.0500000000000E+00  1.6645619977713E-01  1.0585525308916E+00
107  1.0600000000000E+00  1.4106758472666E-01  1.0810404321615E+00
108  1.0700000000000E+00  1.1610554752354E-01  1.1040911430396E+00
109  1.0800000000000E+00  9.1591059111370E-02  1.1276488304070E+00
110  1.0900000000000E+00  6.7545493858685E-02  1.1516432213983E+00
111  1.1000000000000E+00  4.3990693773915E-02  1.1759894884403E+00
112  1.1100000000000E+00  2.0949021881128E-02  1.2005882613272E+00
113  1.1200000000000E+00 -1.5565960807688E-03  1.2253257701962E+00
114  1.1300000000000E+00 -2.3502642433340E-02  1.2500741226153E+00
115  1.1400000000000E+00 -4.4864991571779E-02  1.2746917173627E+00
116  1.1500000000000E+00 -6.5618907949418E-02  1.2990237968460E+00
117  1.1600000000000E+00 -8.5739058742207E-02  1.3229031394986E+00
118  1.1700000000000E+00 -1.0519954188090E-01  1.3461508928846E+00
119  1.1800000000000E+00 -1.2397393012150E-01  1.3685775476501E+00
120  1.1900000000000E+00 -1.4203533180940E-01  1.3899840518705E+00
121  1.2000000000000E+00 -1.5935646897830E-01  1.4101630647476E+00
122  1.2100000000000E+00 -1.7590977340932E-01  1.4289003480140E+00
123  1.2200000000000E+00 -1.9166750125592E-01  1.4459762927753E+00
124  1.2300000000000E+00 -2.0660186681491E-01  1.4611675788739E+00
125  1.2400000000000E+00 -2.2068519598696E-01  1.4742489631486E+00
126  1.2500000000000E+00 -2.3389009992159E-01  1.4849951922103E+00
127  1.2600000000000E+00 -2.4618966927426E-01  1.4931830345019E+00
128  1.2700000000000E+00 -2.5755768941415E-01  1.4985934254687E+00
129  1.2800000000000E+00 -2.6796887680588E-01  1.5010137185909E+00
130  1.2900000000000E+00 -2.7739913664044E-01  1.5002400338139E+00
131  1.3000000000000E+00 -2.8582584160473E-01  1.4960796935139E+00
132  1.3100000000000E+00 -2.9322813145047E-01  1.4883537345421E+00
133  1.3200000000000E+00 -2.9958723274489E-01  1.4768994830639E+00
134  1.3300000000000E+00 -3.0488679784973E-01  1.4615731768132E+00
135  1.3400000000000E+00 -3.0911326177707E-01  1.4422526169967E+00
136  1.3500000000000E+00 -3.1225621510420E-01  1.4188398293729E+00
137  1.3600000000000E+00 -3.1430879058241E-01  1.3912637109433E+00
138  1.3700000000000E+00 -3.1526806044595E-01  1.3594826352149E+00
139  1.3800000000000E+00 -3.1513544070367E-01  1.3234869850720E+00
140  1.3900000000000E+00 -3.1391709787628E-01  1.2833015779092E+00
141  1.4000000000000E+00 -3.1162435270841E-01  1.2389879427548E+00
142  1.4100000000000E+00 -3.0827407433858E-01  1.1906464036449E+00
143  1.4200000000000E+00 -3.0388905723881E-01  1.1384179174464E+00
144  1.4300000000000E+00 -2.9849837192677E-01  1.0824856075930E+00
145  1.4400000000000E+00 -2.9213767901179E-01  1.0230759278319E+00
146  1.4500000000000E+00 -2.8484949452890E-01  9.6045938190040E-01
147  1.4600000000000E+00 -2.7668339275873E-01  8.9495071615198E-01
148  1.4700000000000E+00 -2.6769613079936E-01  8.2690849239242E-01
149  1.4800000000000E+00 -2.5795167704444E-01  7.5673393754625E-01
150  1.4900000000000E+00 -2.4752112341718E-01  6.8486895518090E-01
151  1.5000000000000E+00 -2.3648245870918E-01  6.1179317136041E-01
152  1.5100000000000E+00 -2.2492017765422E-01  5.3801987365859E-01
153  1.5200000000000E+00 -2.1292469742128E-01  4.6409068739448E-01
154  1.5300000000000E+00 -2.0059155003669E-01  3.9056881724436E-01
155  1.5400000000000E+00 -1.8802031581368E-01  3.1803066518868E-01
156  1.5500000000000E+00 -1.7531325917561E-01  2.4705561724873E-01
157  1.5600000000000E+00 -1.6257362428885E-01  1.7821377156486E-01
158  1.5700000000000E+00 -1.4990354365939E-01  1.1205135898950E-01
159  1.5800000000000E+00 -1.3740150827685E-01  4.9073584431773E-02
160  1.5900000000000E+00 -1.2515934109102E-01 -1.0275421519927E-02
161  1.6000000000000E+00 -1.1325863856764E-01 -6.5635665346034E-02
162  1.6100000000000E+00 -1.0176646257613E-01 -1.1675886402753E-01
163  1.6200000000000E+00 -9.0732135718442E-02 -1.6352626715614E-01
164  1.6300000000000E+00 -8.0193118672336E-02 -2.0589772815853E-01
165  1.6400000000000E+00 -7.0181778864979E-02 -2.4385782254441E-01
166  1.6500000000000E+00 -6.0725557577193E-02 -2.7741411656048E-01
167  1.6600000000000E+00 -5.1846929944513E-02 -3.0659712251245E-01
168  1.6700000000000E+00 -4.3563369144070E-02 -3.3146033632547E-01
169  1.6800000000000E+00 -3.5887346364470E-02 -3.5208010371483E-01
170  1.6900000000000E+00 -2.8826369845493E-02 -3.6855529151088E-01
171  1.7000000000000E+00 -2.2383061770267E-02 -3.8100677338298E-01
172  1.7100000000000E+00 -1.6555272649197E-02 -3.8957673166895E-01
173  1.7200000000000E+00 -1.1336232441979E-02 -3.9442777912059E-01
174  1.7300000000000E+00 -6.7147373551317E-03 -3.9574190587803E-01
175  1.7400000000000E+00 -2.6753709961045E-03 -3.9371925816369E-01
176  1.7500000000000E+00  8.0124203065827E-04 -3.8857675866983E-01
177  1.7600000000000E+00  3.7381518731595E-03 -3.8054657724960E-01
178  1.7700000000000E+00  6.1617696021944E-03 -3.6987445528002E-01
179  1.7800000000000E+00  8.1015315030630E-03 -3.5681793102844E-01
180  1.7900000000000E+00  9.5895348871427E-03 -3.4164441711465E-01
181  1.8000000000000E+00  1.0660158111554E-02 -3.2462921002743E-01
182  1.8100000000000E+00  1.1349662301206E-02 -3.0605340956079E-01
183  1.8200000000000E+00  1.1695779774973E-02 -2.8620177604907E-01
184  1.8300000000000E+00  1.1737292744326E-02 -2.6536054344234E-01
185  1.8400000000000E+00  1.1513605715120E-02 -2.4381520518706E-01
186  1.8500000000000E+00  1.1064315335681E-02 -2.2184829184078E-01
187  1.8600000000000E+00  1.0428781412937E-02 -1.9973715914804E-01
188  1.8700000000000E+00  9.6457038672453E-03 -1.7775180939096E-01
189  1.8800000000000E+00  8.7527009633922E-03 -1.5615273231825E-01
190  1.8900000000000E+00  7.7859201188213E-03 -1.3518889072496E-01
191  1.9000000000000E+00  6.7796455006150E-03 -1.1509571518417E-01
192  1.9100000000000E+00  5.7655462944782E-03 -9.6091752133234E-02
193  1.9200000000000E+00  4.7705039810166E-03 -7.8369656729654E-02
194  1.9300000000000E+00  3.8207854361337E-03 -6.2111982506539E-02
195  1.9400000000000E+00  2.9412596857942E-03 -4.7488006834055E-02
196  1.9500000000000E+00  2.1528469767016E-03 -3.4643627109031E-02
197  1.9600000000000E+00  1.4726789043091E-03 -2.3701642830010E-02
198  1.9700000000000E+00  9.1384936082238E-04 -1.4760542751345E-02
199  1.9800000000000E+00  4.8542587570409E-04 -7.8965813330427E-03
200  1.9900000000000E+00  1.9026340238737E-04 -3.1276388892313E-03
201  2.0000000000000E+00  3.6412689127474E-05 -6.0767554587682E-04
202  2.0100000000000E+00 -3.8841546098774E-06  6.5493417704398E-05
203  2.0200000000000E+00  3.5779325245751E-07 -5.9851423437353E-06
204  2.03  0. -0.
205  2.04 -0.  0.
206  2.05 -0.  0.
207  2.06  0.  0.
208  2.07  0.  0.
209  2.08  0.  0.
210  2.09  0.  0.
211  2.10  0.  0.
212  2.11  0.  0.
213  2.12  0.  0.
214  2.13  0.  0.
215  2.14  0.  0.
216  2.15  0.  0.
217  2.16  0.  0.
218  2.17  0.  0.
219  2.18  0.  0.
220  2.19  0.  0.
221  2.20  0.  0.
222  2.21  0.  0.
223  2.22  0.  0.
224  2.23  0.  0.
225  2.24  0.  0.
226  2.25  0.  0.
227  2.26  0.  0.
228  2.27  0.  0.
229  2.28  0.  0.
230  2.29  0.  0.
231  2.30  0.  0.
232  2.31  0.  0.
233  2.32  0.  0.
234  2.33  0.  0.
235  2.34  0.  0.
236  2.35  0.  0.
237  2.36  0.  0.
238  2.37  0.  0.
239  2.38  0.  0.
240  2.39  0.  0.
241  2.40  0.  0.
242  2.41  0.  0.
243  2.42  0.  0.
244  2.43  0.  0.
245  2.44  0.  0.
246  2.45  0.  0.
247  2.46  0.  0.
248  2.47  0.  0.
249  2.48  0.  0.
250  2.49  0.  0.
251  2.50  0.  0.
252  2.51  0.  0.
253  2.52  0.  0.
254  2.53  0.  0.
255  2.54  0.  0.
256  2.55  0.  0.
257  2.56  0.  0.
258  2.57  0.  0.
259  2.58  0.  0.
260  2.59  0.  0.
261  2.60  0.  0.
262  2.61  0.  0.
263  2.62  0.  0.
264  2.63  0.  0.
265  2.64  0.  0.
266  2.65  0.  0.
267  2.66  0.  0.
268  2.67  0.  0.
269  2.68  0.  0.
270  2.69  0.  0.
271  2.70  0.  0.
272  2.71  0.  0.
273  2.72  0.  0.
274  2.73  0.  0.
275  2.74  0.  0.
276  2.75  0.  0.
277  2.76  0.  0.
278  2.77  0.  0.
279  2.78  0.  0.
280  2.79  0.  0.
281  2.80  0.  0.
282  2.81  0.  0.
283  2.82  0.  0.
284  2.83  0.  0.
285  2.84  0.  0.
286  2.85  0.  0.
287  2.86  0.  0.
288  2.87  0.  0.
289  2.88  0.  0.
290  2.89  0.  0.
291  2.90  0.  0.
292  2.91  0.  0.
293  2.92  0.  0.
294  2.93  0.  0.
295  2.94  0.  0.
296  2.95  0.  0.
297  2.96  0.  0.
298  2.97  0.  0.
299  2.98  0.  0.
300  2.99  0.  0.
301  3.00  0.  0.
302  3.01  0.  0.
303  3.02  0.  0.
304  3.03  0.  0.
305  3.04  0.  0.
306  3.05  0.  0.
307  3.06  0.  0.
308  3.07  0.  0.
309  3.08  0.  0.
310  3.09  0.  0.
311  3.10  0.  0.
312  3.11  0.  0.
313  3.12  0.  0.
314  3.13  0.  0.
315  3.14  0.  0.
316  3.15  0.  0.
317  3.16  0.  0.
318  3.17  0.  0.
319  3.18  0.  0.
320  3.19  0.  0.
321  3.20  0.  0.
322  3.21  0.  0.
323  3.22  0.  0.
324  3.23  0.  0.
325  3.24  0.  0.
326  3.25  0.  0.
327  3.26  0.  0.
328  3.27  0.  0.
329  3.28  0.  0.
330  3.29  0.  0.
331  3.30  0.  0.
332  3.31  0.  0.
333  3.32  0.  0.
334  3.33  0.  0.
335  3.34  0.  0.
336  3.35  0.  0.
337  3.36  0.  0.
338  3.37  0.  0.
339  3.38  0.  0.
340  3.39  0.  0.
341  3.40  0.  0.
342  3.41  0.  0.
343  3.42  0.  0.
344  3.43  0.  0.
345  3.44  0.  0.
346  3.45  0.  0.
347  3.46  0.  0.
348  3.47  0.  0.
349  3.48  0.  0.
350  3.49  0.  0.
351  3.50  0.  0.
352  3.51  0.  0.
353  3.52  0.  0.
354  3.53  0.  0.
355  3.54  0.  0.
356  3.55  0.  0.
357  3.56  0.  0.
358  3.57  0.  0.
359  3.58  0.  0.
360  3.59  0.  0.
361  3.60  0.  0.
362  3.61  0.  0.
363  3.62  0.  0.
364  3.63  0.  0.
365  3.64  0.  0.
366  3.65  0.  0.
367  3.66  0.  0.
368  3.67  0.  0.
369  3.68  0.  0.
370  3.69  0.  0.
371  3.70  0.  0.
372  3.71  0.  0.
373  3.72  0.  0.
374  3.73  0.  0.
375  3.74  0.  0.
376  3.75  0.  0.
377  3.76  0.  0.
378  3.77  0.  0.
379  3.78  0.  0.
380  3.79  0.  0.
381  3.80  0.  0.
382  3.81  0.  0.
383  3.82  0.  0.
384  3.83  0.  0.
385  3.84  0.  0.
386  3.85  0.  0.
387  3.86  0.  0.
388  3.87  0.  0.
389  3.88  0.  0.
390  3.89  0.  0.
391  3.90  0.  0.
392  3.91  0.  0.
393  3.92  0.  0.
394  3.93  0.  0.
395  3.94  0.  0.
396  3.95  0.  0.
397  3.96  0.  0.
398  3.97  0.  0.
399  3.98  0.  0.
400  3.99  0.  0.
401  4.00  0.  0.
402  4.01  0.  0.
403  4.02  0.  0.
404  4.03  0.  0.
405  4.04  0.  0.
406  4.05  0.  0.
407  4.06  0.  0.
408  4.07  0.  0.
409  4.08  0.  0.
410  4.09  0.  0.
411  4.10  0.  0.
412  4.11  0.  0.
413  4.12  0.  0.
414  4.13  0.  0.
415  4.14  0.  0.
416  4.15  0.  0.
417  4.16  0.  0.
418  4.17  0.  0.
419  4.18  0.  0.
420  4.19  0.  0.
421  4.20  0.  0.
422  4.21  0.  0.
423  4.22  0.  0.
424  4.23  0.  0.
425  4.24  0.  0.
426  4.25  0.  0.
427  4.26  0.  0.
428  4.27  0.  0.
429  4.28  0.  0.
430  4.29  0.  0.
431  4.30  0.  0.
432  4.31  0.  0.
433  4.32  0.  0.
434  4.33  0.  0.
435  4.34  0.  0.
436  4.35  0.  0.
437  4.36  0.  0.
438  4.37  0.  0.
439  4.38  0.  0.
440  4.39  0.  0.
441  4.40  0.  0.
442  4.41  0.  0.
443  4.42  0.  0.
444  4.43  0.  0.
445  4.44  0.  0.
446  4.45  0.  0.
447  4.46  0.  0.
448  4.47  0.  0.
449  4.48  0.  0.
450  4.49  0.  0.
451  4.50  0.  0.
452  4.51  0.  0.
453  4.52  0.  0.
454  4.53  0.  0.
455  4.54  0.  0.
456  4.55  0.  0.
457  4.56  0.  0.
458  4.57  0.  0.
459  4.58  0.  0.
460  4.59  0.  0.
461  4.60  0.  0.
462  4.61  0.  0.
463  4.62  0.  0.
464  4.63  0.  0.
465  4.64  0.  0.
466  4.65  0.  0.
467  4.66  0.  0.
468  4.67  0.  0.
469  4.68  0.  0.
470  4.69  0.  0.
471  4.70  0.  0.
472  4.71  0.  0.
473  4.72  0.  0.
474  4.73  0.  0.
475  4.74  0.  0.
476  4.75  0.  0.
477  4.76  0.  0.
478  4.77  0.  0.
479  4.78  0.  0.
480  4.79  0.  0.
481  4.80  0.  0.
482  4.81  0.  0.
483  4.82  0.  0.
484  4.83  0.  0.
485  4.84  0.  0.
486  4.85  0.  0.
487  4.86  0.  0.
488  4.87  0.  0.
489  4.88  0.  0.
490  4.89  0.  0.
491  4.90  0.  0.
492  4.91  0.  0.
493  4.92  0.  0.
494  4.93  0.  0.
495  4.94  0.  0.
496  4.95  0.  0.
497  4.96  0.  0.
498  4.97  0.  0.
499  4.98  0.  0.
500  4.99  0.  0.
501  5.00  0.  0.
502  5.01  0.  0.
503  5.02  0.  0.
504  5.03  0.  0.
505  5.04  0.  0.
506  5.05  0.  0.
507  5.06  0.  0.
508  5.07  0.  0.
509  5.08  0.  0.
510  5.09  0.  0.
511  5.10  0.  0.
512  5.11  0.  0.
513  5.12  0.  0.
514  5.13  0.  0.
515  5.14  0.  0.
516  5.15  0.  0.
517  5.16  0.  0.
518  5.17  0.  0.
519  5.18  0.  0.
520  5.19  0.  0.
521  5.20  0.  0.
522  5.21  0.  0.
523  5.22  0.  0.
524  5.23  0.  0.
525  5.24  0.  0.
526  5.25  0.  0.
527  5.26  0.  0.
528  5.27  0.  0.
529  5.28  0.  0.
530  5.29  0.  0.
531  5.30  0.  0.
532  5.31  0.  0.
533  5.32  0.  0.
534  5.33  0.  0.
535  5.34  0.  0.
536  5.35  0.  0.
537  5.36  0.  0.
538  5.37  0.  0.
539  5.38  0.  0.
540  5.39  0.  0.
541  5.40  0.  0.
542  5.41  0.  0.
543  5.42  0.  0.
544  5.43  0.  0.
545  5.44  0.  0.
546  5.45  0.  0.
547  5.46  0.  0.
548  5.47  0.  0.
549  5.48  0.  0.
550  5.49  0.  0.
551  5.50  0.  0.
552  5.51  0.  0.
553  5.52  0.  0.
554  5.53  0.  0.
555  5.54  0.  0.
556  5.55  0.  0.
557  5.56  0.  0.
558  5.57  0.  0.
559  5.58  0.  0.
560  5.59  0.  0.
561  5.60  0.  0.
562  5.61  0.  0.
563  5.62  0.  0.
564  5.63  0.  0.
565  5.64  0.  0.
566  5.65  0.  0.
567  5.66  0.  0.
568  5.67  0.  0.
569  5.68  0.  0.
570  5.69  0.  0.
571  5.70  0.  0.
572  5.71  0.  0.
573  5.72  0.  0.
574  5.73  0.  0.
575  5.74  0.  0.
576  5.75  0.  0.
577  5.76  0.  0.
578  5.77  0.  0.
579  5.78  0.  0.
580  5.79  0.  0.
581  5.80  0.  0.
582  5.81  0.  0.
583  5.82  0.  0.
584  5.83  0.  0.
585  5.84  0.  0.
586  5.85  0.  0.
587  5.86  0.  0.
588  5.87  0.  0.
589  5.88  0.  0.
590  5.89  0.  0.
591  5.90  0.  0.
592  5.91  0.  0.
593  5.92  0.  0.
594  5.93  0.  0.
595  5.94  0.  0.
596  5.95  0.  0.
597  5.96  0.  0.
598  5.97  0.  0.
599  5.98  0.  0.
600  5.99  0.  0.
1                         4.8094164871916E+00  3.8336418461618E-01
1  0.0000000000000E+00  8.4574201392185E-09 -6.3693437413193E-08
2  1.0000000000000E-02  1.3622625009867E-03 -3.9618738499514E-03
3  2.0000000000000E-02  5.4348924340207E-03 -1.5752629814157E-02
4  3.0000000000000E-02  1.2175673161940E-02 -3.5089598029650E-02
5  4.0000000000000E-02  2.1515092223776E-02 -6.1508047648306E-02
6  5.0000000000000E-02  3.3357596921262E-02 -9.4370635067236E-02
7  6.0000000000000E-02  4.7583317851804E-02 -1.3288037368193E-01
8  7.0000000000000E-02  6.4050226890735E-02 -1.7609687327146E-01
9  8.0000000000000E-02  8.2596687668211E-02 -2.2295553343150E-01
10  9.0000000000000E-02  1.0304434893456E-01 -2.7228931777036E-01
11  1.0000000000000E-01  1.2520132450983E-01 -3.2285268497511E-01
12  1.1000000000000E-01  1.4886559789845E-01 -3.7334721030759E-01
13  1.2000000000000E-01  1.7382858522696E-01 -4.2244839741834E-01
14  1.3000000000000E-01  1.9987878701912E-01 -4.6883315622240E-01
15  1.4000000000000E-01  2.2680545751992E-01 -5.1120740843526E-01
16  1.5000000000000E-01  2.5440221985562E-01 -5.4833327850522E-01
17  1.6000000000000E-01  2.8247055628177E-01 -5.7905533419119E-01
18  1.7000000000000E-01  3.1082310510922E-01 -6.0232535781897E-01
19  1.8000000000000E-01  3.3928669956874E-01 -6.1722515600732E-01
20  1.9000000000000E-01  3.6770508880916E-01 -6.2298695190247E-01
21  2.0000000000000E-01  3.9594128733294E-01 -6.1901094903057E-01
22  2.1000000000000E-01  4.2387950634023E-01 -6.0487970894118E-01
23  2.2000000000000E-01  4.5142662854584E-01 -5.8036904488368E-01
24  2.3000000000000E-01  4.7851319689882E-01 -5.4545519971659E-01
25  2.4000000000000E-01  5.0509389710528E-01 -5.0031814686185E-01
26  2.5000000000000E-01  5.3114752375104E-01 -4.4534092705886E-01
27  2.6000000000000E-01  5.5667642995435E-01 -3.8110500955738E-01
28  2.7000000000000E-01  5.8170547065578E-01 -3.0838174278028E-01
29  2.8000000000000E-01  6.0628045967778E-01 -2.2812003494455E-01
30  2.9000000000000E-01  6.3046617036759E-01 -1.4143047821640E-01
31  3.0000000000000E-01  6.5434391878622E-01 -4.9566199302663E-02
32  3.1000000000000E-01  6.7800877684576E-01  4.6099216381680E-02
33  3.2000000000000E-01  7.0156647036192E-01  1.4409632191705E-01
34  3.3000000000000E-01  7.2513002352901E-01  2.4288647193560E-01
35  3.4000000000000E-01  7.4881621670962E-01  3.4089005397839E-01
36  3.5000000000000E-01  7.7274192855294E-01  4.3651575783380E-01
37  3.6000000000000E-01  7.9702043622626E-01  5.2819032969336E-01
38  3.7000000000000E-01  8.2175774890520E-01  6.1438824551996E-01
39  3.8000000000000E-01  8.4704904958362E-01  6.9366073626700E-01
40  3.9000000000000E-01  8.7297531872839E-01  7.6466360659819E-01
41  4.0000000000000E-01  8.9960021033747E-01  8.2618330841950E-01
42  4.1000000000000E-01  9.2696724660943E-01  8.7716076052515E-01
43  4.2000000000000E-01  9.5509739177427E-01  9.1671244546503E-01
44  4.3000000000000E-01  9.8398705876766E-01  9.4414836365774E-01
45  4.4000000000000E-01  1.0136065944778E+00  9.5898648192375E-01
46  4.5000000000000E-01  1.0438992803998E+00  9.6096337796183E-01
47  4.6000000000000E-01  1.0747808758611E+00  9.5004085265922E-01
48  4.7000000000000E-01  1.1061397207102E+00  9.2640835721714E-01
49  4.8000000000000E-01  1.1378374036858E+00  8.9048116049440E-01
50  4.9000000000000E-01  1.1697099917979E+00  8.4289426226179E-01
51  5.0000000000000E-01  1.2015698051704E+00  7.8449213871185E-01
52  5.1000000000000E-01  1.2332077111165E+00  7.1631448606314E-01
53  5.2000000000000E-01  1.2643959009540E+00  6.3957820492802E-01
54  5.3000000000000E-01  1.2948911034114E+00  5.5565594081206E-01
55  5.4000000000000E-01  1.3244381796164E+00  4.6605156328739E-01
56  5.5000000000000E-01  1.3527740367762E+00  3.7237302673026E-01
57  5.6000000000000E-01  1.3796317908991E+00  2.7630310785740E-01
58  5.7000000000000E-01  1.4047451034178E+00  1.7956855860157E-01
59  5.8000000000000E-01  1.4278526124659E+00  8.3908246262499E-02
60  5.9000000000000E-01  1.4487023769151E+00 -8.9591243316185E-03
61  6.0000000000000E-01  1.4670562501683E+00 -9.7367100211116E-02
62  6.1000000000000E-01  1.4826941011578E+00 -1.7973277443076E-01
63  6.2000000000000E-01  1.4954178020080E+00 -2.5458668937154E-01
64  6.3000000000000E-01  1.5050549053864E+00 -3.2060077597424E-01
65  6.4000000000000E-01  1.5114619396007E+00 -3.7661378909726E-01
66  6.5000000000000E-01  1.5145272559474E+00 -4.2165374298427E-01
67  6.6000000000000E-01  1.5141733705453E+00 -4.5495690425132E-01
68  6.7000000000000E-01  1.5103587517751E+00 -4.7598296190933E-01
69  6.8000000000000E-01  1.5030790143232E+00 -4.8442606361355E-01
70  6.9000000000000E-01  1.4923674915246E+00 -4.8022148329567E-01
71  7.0000000000000E-01  1.4782951690137E+00 -4.6354776621199E-01
72  7.1000000000000E-01  1.4609699744162E+00 -4.3482428171328E-01
73  7.2000000000000E-01  1.4405354297338E+00 -3.9470420016617E-01
74  7.3000000000000E-01  1.4171686849608E+00 -3.4406299679228E-01
75  7.4000000000000E-01  1.3910779630999E+00 -2.8398267013827E-01
76  7.5000000000000E-01  1.3624994579053E+00 -2.1573194481936E-01
77  7.6000000000000E-01  1.3316937361401E+00 -1.4074280553449E-01
78  7.7000000000000E-01  1.2989417057121E+00 -6.0583780652133E-02
79  7.8000000000000E-01  1.2645402195435E+00  2.3069542477888E-02
80  7.9000000000000E-01  1.2287973922773E+00  1.0846623315800E-01
81  8.0000000000000E-01  1.1920277127785E+00  1.9381338119837E-01
82  8.1000000000000E-01  1.1545470397335E+00  2.7731049156595E-01
83  8.2000000000000E-01  1.1166675703874E+00  3.5718426909435E-01
84  8.3000000000000E-01  1.0786928735398E+00  4.3172314112930E-01
85  8.4000000000000E-01  1.0409130772904E+00  4.9931086677724E-01
86  8.5000000000000E-01  1.0036002997140E+00  5.5845859445979E-01
87  8.6000000000000E-01  9.6700440665945E-01  6.0783475457315E-01
88  8.7000000000000E-01  9.3134917528895E-01  6.4629221080161E-01
89  8.8000000000000E-01  8.9682893489265E-01  6.7289214140818E-01
90  8.9000000000000E-01  8.6360574805050E-01  6.8692417977904E-01
91  9.0000000000000E-01  8.3180718552608E-01  6.8792241059487E-01
92  9.1000000000000E-01  8.0152473753559E-01  6.7567689302521E-01
93  9.2000000000000E-01  7.7281289243860E-01  6.5024046391247E-01
94  9.3000000000000E-01  7.4568890165778E-01  6.1193066053821E-01
95  9.4000000000000E-01  7.2013323697952E-01  5.6132669263332E-01
96  9.5000000000000E-01  6.9609073355285E-01  4.9926148512914E-01
97  9.6000000000000E-01  6.7347239912976E-01  4.2680890503494E-01
98  9.7000000000000E-01  6.5215785761655E-01  3.4526637604555E-01
99  9.8000000000000E-01  6.3199838307180E-01  2.5613317130614E-01
100  9.9000000000000E-01  6.1282046911158E-01  1.6108475661075E-01
101  1.0000000000000E+00  5.9442986848926E-01  6.1943631551593E-02
102  1.0100000000000E+00  5.7661602859575E-01 -3.9352816611936E-02
103  1.0200000000000E+00  5.5915684095041E-01 -1.4078687362401E-01
104  1.0300000000000E+00  5.4182361657343E-01 -2.4029685313400E-01
105  1.0400000000000E+00  5.2438619457295E-01 -3.3581458929910E-01
106  1.0500000000000E+00  5.0661808842704E-01 -4.2530338633551E-01
107  1.0600000000000E+00  4.8830157336119E-01 -5.0679573259121E-01
108  1.0700000000000E+00  4.6923261893305E-01 -5.7843008777848E-01
109  1.0800000000000E+00  4.4922557343856E-01 -6.3848606586200E-01
110  1.0900000000000E+00  4.2811751100008E-01 -6.8541736249473E-01
111  1.1000000000000E+00  4.0577215810785E-01 -7.1788181430874E-01
112  1.1100000000000E+00  3.8208332388145E-01 -7.3476802729520E-01
113  1.1200000000000E+00  3.5697776720277E-01 -7.3521807162876E-01
114  1.1300000000000E+00  3.3041744408133E-01 -7.1864581017368E-01
115  1.1400000000000E+00  3.0240108981818E-01 -6.8475050529037E-01
116  1.1500000000000E+00  2.7296510271067E-01 -6.3352543327431E-01
117  1.1600000000000E+00  2.4218370874481E-01 -5.6526132472407E-01
118  1.1700000000000E+00  2.1016839995878E-01 -4.8054454238756E-01
119  1.1800000000000E+00  1.7706665243994E-01 -3.8025000211885E-01
120  1.1900000000000E+00  1.4305994321897E-01 -2.6552893737700E-01
121  1.2000000000000E+00  1.0836109821828E-01 -1.3779170014640E-01
122  1.2100000000000E+00  7.3211015770481E-02  1.3141196329450E-03
123  1.2200000000000E+00  3.7874821800227E-02  1.4992988982440E-01
124  1.2300000000000E+00  2.6375232585075E-03  3.0601600369733E-01
125  1.2400000000000E+00 -3.2200764213259E-02  4.6738530630824E-01
126  1.2500000000000E+00 -6.6329930494887E-02  6.3173930686559E-01
127  1.2600000000000E+00 -9.9435236734705E-02  7.9670655453919E-01
128  1.2700000000000E+00 -1.3120283749602E-01  9.5988251671448E-01
129  1.2800000000000E+00 -1.6132536111505E-01  1.1188702722768E+00
130  1.2900000000000E+00 -1.8950744878932E-01  1.2713213182269E+00
131  1.3000000000000E+00 -2.1547115343969E-01  1.4149757862672E+00
132  1.3100000000000E+00 -2.3896110169272E-01  1.5477013767575E+00
133  1.3200000000000E+00 -2.5974932636246E-01  1.6675303402774E+00
134  1.3300000000000E+00 -2.7763968252827E-01  1.7726938716997E+00