Sm    ONCVPSP-4.0.1  r_core=   2.00717   1.60864   1.90196   1.35244
62.0000     16.0000      241015    zatom,zion,pspd
8      11   3     4   600     0    pspcod,pspxc,lmax,lloc,mmax,r2well
5.99000000  4.00000000  0.00000000    rchrg fchrg qchrg
3     2     2     2     0    nproj
1     1           extension_switch
0                         1.2089671601310E+01  2.3301265872886E+00  3.8637523275348E-01
1  0.0000000000000E+00 -2.6616442383443E-10  8.2085717389990E-10 -1.8476733476547E-09
2  1.0000000000000E-02  3.9984874638711E-02 -1.5740360607834E-02  3.3867045048954E-02
3  2.0000000000000E-02  7.9919534539730E-02 -3.1346854331313E-02  6.7397164613239E-02
4  3.0000000000000E-02  1.1975415129332E-01 -4.6687137224725E-02  1.0025730153277E-01
5  4.0000000000000E-02  1.5943966368809E-01 -6.1631892712130E-02  1.3212209145120E-01
6  5.0000000000000E-02  1.9892814773486E-01 -7.6056299214235E-02  1.6267760007801E-01
7  6.0000000000000E-02  2.3817317059079E-01 -8.9841443093519E-02  1.9162493080489E-01
8  7.0000000000000E-02  2.7713012333336E-01 -1.0287565966361E-01  2.1868366165007E-01
9  8.0000000000000E-02  3.1575652779956E-01 -1.1505578582978E-01  2.4359507235247E-01
10  9.0000000000000E-02  3.5401231303307E-01 -1.2628830893767E-01  2.6612512471237E-01
11  1.0000000000000E-01  3.9186005726642E-01 -1.3649039759508E-01  2.8606716195414E-01
12  1.1000000000000E-01  4.2926519180276E-01 -1.4559080158607E-01  3.0324429594219E-01
13  1.2000000000000E-01  4.6619616364723E-01 -1.5353060950159E-01  3.1751145448336E-01
14  1.3000000000000E-01  5.0262455426585E-01 -1.6026385435167E-01  3.2875706466142E-01
15  1.4000000000000E-01  5.3852515241460E-01 -1.6575795918220E-01  3.3690435213590E-01
16  1.5000000000000E-01  5.7387597957605E-01 -1.6999401657735E-01  3.4191224055638E-01
17  1.6000000000000E-01  6.0865826715884E-01 -1.7296689786383E-01  3.4377583965055E-01
18  1.7000000000000E-01  6.4285638524981E-01 -1.7468518982899E-01  3.4252651509718E-01
19  1.8000000000000E-01  6.7645772335102E-01 -1.7517095879304E-01  3.3823153793986E-01
20  1.9000000000000E-01  7.0945252417886E-01 -1.7445934392157E-01  3.3099331599388E-01
21  2.0000000000000E-01  7.4183367223949E-01 -1.7259798369932E-01  3.2094821438959E-01
22  2.1000000000000E-01  7.7359643951928E-01 -1.6964628148988E-01  3.0826497703476E-01
23  2.2000000000000E-01  8.0473819123067E-01 -1.6567451805664E-01  2.9314276531699E-01
24  2.3000000000000E-01  8.3525805512717E-01 -1.6076282079386E-01  2.7580883475170E-01
25  2.4000000000000E-01  8.6515655843832E-01 -1.5500000119274E-01  2.5651587446900E-01
26  2.5000000000000E-01  8.9443523696898E-01 -1.4848227372503E-01  2.3553903837093E-01
27  2.6000000000000E-01  9.2309622135274E-01 -1.4131187084717E-01  2.1317270044414E-01
28  2.7000000000000E-01  9.5114180583696E-01 -1.3359557018873E-01  1.8972697002433E-01
29  2.8000000000000E-01  9.7857400530705E-01 -1.2544315118257E-01  1.6552400576378E-01
30  2.9000000000000E-01  1.0053941065187E+00 -1.1696579939132E-01  1.4089416958427E-01
31  3.0000000000000E-01  1.0316022197009E+00 -1.0827447758855E-01  1.1617206400793E-01
32  3.1000000000000E-01  1.0571968368129E+00 -9.9478283237722E-02  9.1692497891663E-02
33  3.2000000000000E-01  1.0821744027812E+00 -9.0682812378921E-02  6.7786426743022E-02
34  3.3000000000000E-01  1.1065289060127E+00 -8.1988550070700E-02  4.4776914441992E-02
35  3.4000000000000E-01  1.1302514943664E+00 -7.3489307439175E-02  2.2975163320182E-02
36  3.5000000000000E-01  1.1533301225792E+00 -6.5270725059060E-02  2.6766591568403E-03
37  3.6000000000000E-01  1.1757492368757E+00 -5.7408861829244E-02 -1.5842523271227E-02
38  3.7000000000000E-01  1.1974895021487E+00 -4.9968887717072E-02 -3.2329209885684E-02
39  3.8000000000000E-01  1.2185275766869E+00 -4.3003897731340E-02 -4.6556370003017E-02
40  3.9000000000000E-01  1.2388359389419E+00 -3.6553863260252E-02 -5.8326072226073E-02
41  4.0000000000000E-01  1.2583827702828E+00 -3.0644735482206E-02 -6.7472116644821E-02
42  4.1000000000000E-01  1.2771318970815E+00 -2.5287713942471E-02 -7.3862309822576E-02
43  4.2000000000000E-01  1.2950427948155E+00 -2.0478691602112E-02 -7.7400352819742E-02
44  4.3000000000000E-01  1.3120706561747E+00 -1.6197885728482E-02 -7.8027316654791E-02
45  4.4000000000000E-01  1.3281665244176E+00 -1.2409661924249E-02 -7.5722684089104E-02
46  4.5000000000000E-01  1.3432774924578E+00 -9.0625564152704E-03 -7.0504941386029E-02
47  4.6000000000000E-01  1.3573469673680E+00 -6.0894994506965E-03 -6.2431708704943E-02
48  4.7000000000000E-01  1.3703149991960E+00 -3.4082403486687E-03 -5.1599402969384E-02
49  4.8000000000000E-01  1.3821186721798E+00 -9.2197236332950E-04 -3.8142432362841E-02
50  4.9000000000000E-01  1.3926925556613E+00  1.4798468104610E-03 -2.2231926977146E-02
51  5.0000000000000E-01  1.4019692112186E+00  3.9204854164857E-03 -4.0740155188669E-03
52  5.1000000000000E-01  1.4098797517952E+00  6.5347477082429E-03  1.6092336701236E-02
53  5.2000000000000E-01  1.4163544478914E+00  9.4676147258523E-03  3.7997908070366E-02
54  5.3000000000000E-01  1.4213233752217E+00  1.2872728896258E-02  6.1346193817139E-02
55  5.4000000000000E-01  1.4247170976374E+00  1.6910737540219E-02  8.5816741770338E-02
56  5.5000000000000E-01  1.4264673785693E+00  2.1747512180316E-02  1.1106881602582E-01
57  5.6000000000000E-01  1.4265079137783E+00  2.7552262173864E-02  1.3674534968595E-01
58  5.7000000000000E-01  1.4247750778080E+00  3.4495562619516E-02  1.6247714411787E-01
59  5.8000000000000E-01  1.4212086762319E+00  4.2747317689648E-02  1.8788726891000E-01
60  5.9000000000000E-01  1.4157526955724E+00  5.2474681502683E-02  2.1259561394038E-01
61  6.0000000000000E-01  1.4083560426463E+00  6.3839959362191E-02  2.3622354273026E-01
62  6.1000000000000E-01  1.3989732650761E+00  7.6998512632743E-02  2.5839859459183E-01
63  6.2000000000000E-01  1.3875652447779E+00  9.2096690694938E-02  2.7875918200220E-01
64  6.3000000000000E-01  1.3740998564179E+00  1.0926981332152E-01  2.9695922915935E-01
65  6.4000000000000E-01  1.3585525831069E+00  1.2864022643021E-01  3.1267269783633E-01
66  6.5000000000000E-01  1.3409070819745E+00  1.5031545351735E-01  3.2559794741237E-01
67  6.6000000000000E-01  1.3211556927334E+00  1.7438646414992E-01  3.3546187735613E-01
68  6.7000000000000E-01  1.2992998829010E+00  2.0092607971011E-01  3.4202380243313E-01
69  6.8000000000000E-01  1.2753506239844E+00  2.2998753516180E-01  3.4507901348868E-01
70  6.9000000000000E-01  1.2493286936481E+00  2.6160321395205E-01  3.4446197980235E-01
71  7.0000000000000E-01  1.2212648996672E+00  2.9578357130191E-01  3.4004915267009E-01
72  7.1000000000000E-01  1.1912002223054E+00  3.3251625909074E-01  3.3176133402860E-01
73  7.2000000000000E-01  1.1591858726423E+00  3.7176546334430E-01  3.1956557850256E-01
74  7.3000000000000E-01  1.1252832652961E+00  4.1347146299763E-01  3.0347660223520E-01
75  7.4000000000000E-01  1.0895639049296E+00  4.5755041618054E-01  2.8355767713771E-01
76  7.5000000000000E-01  1.0521091868814E+00  5.0389437777686E-01  2.5992099474208E-01
77  7.6000000000000E-01  1.0130101132179E+00  5.5237154948041E-01  2.3272748958247E-01
78  7.7000000000000E-01  9.7236692643296E-01  6.0282676104897E-01  2.0218611788710E-01
79  7.8000000000000E-01  9.3028866393414E-01  6.5508217896395E-01  1.6855259328777E-01
80  7.9000000000000E-01  8.8689263731600E-01  7.0893823628759E-01  1.3212758714808E-01
81  8.0000000000000E-01  8.4230384123331E-01  7.6417477519100E-01  9.3254406930777E-02
82  8.1000000000000E-01  7.9665429743194E-01  8.2055239144483E-01  5.2316171681397E-02
83  8.2000000000000E-01  7.5008234016279E-01  8.7781396814515E-01  9.7325091484545E-03
84  8.3000000000000E-01  7.0273184978520E-01  9.3568638411683E-01 -3.4044195778986E-02
85  8.4000000000000E-01  6.5475144185074E-01  9.9388238082423E-01 -7.8532966816821E-02
86  8.5000000000000E-01  6.0629361934100E-01  1.0521025702338E+00 -1.2322877727378E-01
87  8.6000000000000E-01  5.5751389600517E-01  1.1100375649445E+00 -1.6760742334343E-01
88  8.7000000000000E-01  5.0856989890485E-01  1.1673702110265E+00 -2.1113068321841E-01
89  8.8000000000000E-01  4.5962045831827E-01  1.2237779034086E+00 -2.5325171250979E-01
90  8.9000000000000E-01  4.1082469308708E-01  1.2789349633178E+00 -2.9342062392512E-01
91  9.0000000000000E-01  3.6234109930777E-01  1.3325150572045E+00 -3.3109019715515E-01
92  9.1000000000000E-01  3.1432664997709E-01  1.3841936367747E+00 -3.6572166345050E-01
93  9.2000000000000E-01  2.6693591280956E-01  1.4336503801809E+00 -3.9679050840672E-01
94  9.3000000000000E-01  2.2032019295558E-01  1.4805716150711E+00 -4.2379223602964E-01
95  9.4000000000000E-01  1.7462670677812E-01  1.5246527050495E+00 -4.4624803717623E-01
96  9.5000000000000E-01  1.2999779220233E-01  1.5656003821171E+00 -4.6371030593932E-01
97  9.6000000000000E-01  8.6570160451258E-02  1.6031350088185E+00 -4.7576794843155E-01
98  9.7000000000000E-01  4.4474193238764E-02  1.6369927550679E+00 -4.8205142966815E-01
99  9.8000000000000E-01  3.8332887233113E-03  1.6669276759429E+00 -4.8223750582118E-01
100  9.9000000000000E-01 -3.5236741247622E-02  1.6927136780547E+00 -4.7605359095934E-01
101  1.0000000000000E+00 -7.2628220833261E-02  1.7141463634057E+00 -4.6328170945131E-01
102  1.0100000000000E+00 -1.0824210579439E-01  1.7310447408654E+00 -4.4376198745546E-01
103  1.0200000000000E+00 -1.4198842462262E-01  1.7432527965070E+00 -4.1739563929916E-01
104  1.0300000000000E+00 -1.7378666544393E-01  1.7506409149981E+00 -3.8414740704072E-01
105  1.0400000000000E+00 -2.0356610945008E-01  1.7531071449953E+00 -3.4404741407424E-01
106  1.0500000000000E+00 -2.3126611201772E-01  1.7505783020211E+00 -2.9719239628174E-01
107  1.0600000000000E+00 -2.5683633295770E-01  1.7430109025752E+00 -2.4374627696708E-01
108  1.0700000000000E+00 -2.8023691748336E-01  1.7303919232329E+00 -1.8394005464203E-01
109  1.0800000000000E+00 -3.0143862948435E-01  1.7127393782000E+00 -1.1807097573787E-01
110  1.0900000000000E+00 -3.2042293853820E-01  1.6901027082293E+00 -4.6500967567322E-02
111  1.1000000000000E+00 -3.3718206177914E-01  1.6625629729781E+00  3.0345689544823E-02
112  1.1100000000000E+00 -3.5171896127736E-01  1.6302328378181E+00  1.1198546792398E-01
113  1.1200000000000E+00 -3.6404729697028E-01  1.5932563448644E+00  1.9787948818796E-01
114  1.1300000000000E+00 -3.7419133443922E-01  1.5518084566116E+00  2.8743821132241E-01
115  1.1400000000000E+00 -3.8218580597205E-01  1.5060943591659E+00  3.8002692677181E-01
116  1.1500000000000E+00 -3.8807572240925E-01  1.4563485107305E+00  4.7497202766360E-01
117  1.1600000000000E+00 -3.9191613229018E-01  1.4028334198849E+00  5.7156805401854E-01
118  1.1700000000000E+00 -3.9377182383175E-01  1.3458381374635E+00  6.6908547206240E-01
119  1.1800000000000E+00 -3.9371696434955E-01  1.2856764456567E+00  7.6677914232573E-01
120  1.1900000000000E+00 -3.9183467093527E-01  1.2226847285895E+00  8.6389741020575E-01
121  1.2000000000000E+00 -3.8821650561405E-01  1.1572195102922E+00  9.5969172972535E-01
122  1.2100000000000E+00 -3.8296188791720E-01  1.0896546489957E+00  1.0534267034426E+00
123  1.2200000000000E+00 -3.7617741792465E-01  1.0203781813973E+00  1.1443903879928E+00
124  1.2300000000000E+00 -3.6797610347284E-01  9.4978881725440E-01  1.2319046751062E+00
125  1.2400000000000E+00 -3.5847648654347E-01  8.7829209394515E-01  1.3153355103733E+00
126  1.2500000000000E+00 -3.4780166597706E-01  8.0629621277519E-01  1.3941026563595E+00
127  1.2600000000000E+00 -3.3607821677743E-01  7.3420759443229E-01  1.4676886411370E+00
128  1.2700000000000E+00 -3.2343501060144E-01  6.6242621073175E-01  1.5356464564904E+00
129  1.2800000000000E+00 -3.1000194772243E-01  5.9134077405888E-01  1.5976054813531E+00
130  1.2900000000000E+00 -2.9590861810441E-01  5.2132389562776E-01  1.6532750030352E+00
131  1.3000000000000E+00 -2.8128291848013E-01  4.5272735954919E-01  1.7024445900901E+00
132  1.3100000000000E+00 -2.6624966372755E-01  3.8587770238831E-01  1.7449804349688E+00
133  1.3200000000000E+00 -2.5092924472466E-01  3.2107233841398E-01  1.7808166295351E+00
134  1.3300000000000E+00 -2.3543640162980E-01  2.5857653023652E-01  1.8099401552636E+00
135  1.3400000000000E+00 -2.1987920161438E-01  1.9862157464434E-01  1.8323681495556E+00
136  1.3500000000000E+00 -2.0435833289218E-01  1.4140465114099E-01  1.8481162704164E+00
137  1.3600000000000E+00 -1.8896685807615E-01  8.7090896829094E-02  1.8571564787135E+00
138  1.3700000000000E+00 -1.7379055326803E-01  3.5818324431920E-02  1.8594281414514E+00
139  1.3800000000000E+00 -1.5890821841778E-01 -1.2298433356161E-02  1.8549093963001E+00
140  1.3900000000000E+00 -1.4439158558752E-01 -5.7167749905761E-02  1.8436333080701E+00
141  1.4000000000000E+00 -1.3030521502892E-01 -9.8720986605055E-02  1.8256865412549E+00
142  1.4100000000000E+00 -1.1670645117726E-01 -1.3691227676078E-01  1.8012080012691E+00
143  1.4200000000000E+00 -1.0364543490512E-01 -1.7171813065120E-01  1.7703869613899E+00
144  1.4300000000000E+00 -9.1165169789062E-02 -2.0313686863569E-01  1.7334607632316E+00
145  1.4400000000000E+00 -7.9301639470085E-02 -2.3118789252969E-01  1.6907121128149E+00
146  1.4500000000000E+00 -6.8083972842797E-02 -2.5591080654133E-01  1.6424660018447E+00
147  1.4600000000000E+00 -5.7534653493681E-02 -2.7736440015269E-01  1.5890862875547E+00
148  1.4700000000000E+00 -4.7669769553895E-02 -2.9562550621913E-01  1.5309719668806E+00
149  1.4800000000000E+00 -3.8499299914147E-02 -3.1078774836698E-01  1.4685531838450E+00
150  1.4900000000000E+00 -3.0027432595607E-02 -3.2296019235403E-01  1.4022870107456E+00
151  1.5000000000000E+00 -2.2252910954217E-02 -3.3226591654350E-01  1.3326530457684E+00
152  1.5100000000000E+00 -1.5169403344273E-02 -3.3884051689712E-01  1.2601488704917E+00
153  1.5200000000000E+00 -8.7658918409924E-03 -3.4283056208855E-01  1.1852854120761E+00
154  1.5300000000000E+00 -3.0270756682962E-03 -3.4439201425773E-01  1.1085822547031E+00
155  1.5400000000000E+00  2.0662149533990E-03 -3.4368863079116E-01  1.0305629450534E+00
156  1.5500000000000E+00  6.5365987103087E-03 -3.4089036220736E-01  9.5175033610354E-01
157  1.5600000000000E+00  1.0409720853412E-02 -3.3617176071976E-01  8.7266201218097E-01
158  1.5700000000000E+00  1.3713832441674E-02 -3.2971041352865E-01  7.9380583727944E-01
159  1.5800000000000E+00  1.6479374768824E-02 -3.2168541413952E-01  7.1567566653075E-01
160  1.5900000000000E+00  1.8738572337526E-02 -3.1227588423940E-01  6.3874725887160E-01
161  1.6000000000000E+00  2.0525037458579E-02 -3.0165955768436E-01  5.6347442609188E-01
162  1.6100000000000E+00  2.1873389291869E-02 -2.9001143726522E-01  4.9028545127381E-01
163  1.6200000000000E+00  2.2818889820536E-02 -2.7750253375918E-01  4.1957980605458E-01
164  1.6300000000000E+00  2.3397098946678E-02 -2.6429869568917E-01  3.5172519308066E-01
165  1.6400000000000E+00  2.3643550590737E-02 -2.5055953709373E-01  2.8705493677580E-01
166  1.6500000000000E+00  2.3593451341144E-02 -2.3643746935205E-01  2.2586574158255E-01
167  1.6600000000000E+00  2.3281402884890E-02 -2.2207684190556E-01  1.6841583314637E-01
168  1.6700000000000E+00  2.2741149156625E-02 -2.0761319557803E-01  1.1492349443488E-01
169  1.6800000000000E+00  2.2005348808137E-02 -1.9317263086414E-01  6.5566004307199E-02
170  1.6900000000000E+00  2.1105373339084E-02 -1.7887129249101E-01  2.0478982735110E-02
171  1.7000000000000E+00  2.0071130916470E-02 -1.6481497026546E-01 -2.0243857594213E-02
172  1.7100000000000E+00  1.8930915687436E-02 -1.5109881525065E-01 -5.6550556719223E-02
173  1.7200000000000E+00  1.7711282122667E-02 -1.3780716915599E-01 -8.8430357458502E-02
174  1.7300000000000E+00  1.6436943631063E-02 -1.2501350355415E-01 -1.1591277217424E-01
175  1.7400000000000E+00  1.5130694712822E-02 -1.1278046542075E-01 -1.3906627864759E-01
176  1.7500000000000E+00  1.3813355652226E-02 -1.0116002430851E-01 -1.5799666190724E-01
177  1.7600000000000E+00  1.2503737543182E-02 -9.0193711883154E-02 -1.7284503620144E-01
178  1.7700000000000E+00  1.1218628379056E-02 -7.9912954916312E-02 -1.8378554221590E-01
179  1.7800000000000E+00  9.9727963652839E-03 -7.0339486113219E-02 -1.9102277797195E-01
180  1.7900000000000E+00  8.7790104246483E-03 -6.1485830673641E-02 -1.9478897099101E-01
181  1.8000000000000E+00  7.6480756854119E-03 -5.3355858414674E-02 -1.9534093004934E-01
182  1.8100000000000E+00  6.5888823573636E-03 -4.5945393300810E-02 -1.9295680753478E-01
183  1.8200000000000E+00  5.6084662857814E-03 -3.9242871628092E-02 -1.8793270602074E-01
184  1.8300000000000E+00  4.7120794307297E-03 -3.3230039797216E-02 -1.8057916414230E-01
185  1.8400000000000E+00  3.9032685790991E-03 -2.7882682678993E-02 -1.7121755701265E-01
186  1.8500000000000E+00  3.1839605770552E-03 -2.3171373396208E-02 -1.6017644736528E-01
187  1.8600000000000E+00  2.5545524357319E-03 -1.9062235488862E-02 -1.4778792342861E-01
188  1.8700000000000E+00  2.0140147589597E-03 -1.5517733669887E-02 -1.3438391764896E-01
189  1.8800000000000E+00  1.5599259678531E-03 -1.2497281950049E-02 -1.2029287818261E-01
190  1.8900000000000E+00  1.1887033802714E-03 -9.9583295191552E-03 -1.0583571601310E-01
191  1.9000000000000E+00  8.9564914645664E-04 -7.8569642754902E-03 -9.1322642550927E-02
192  1.9100000000000E+00  6.7133791164503E-04 -6.1393509166865E-03 -7.7065354766712E-02
193  1.9200000000000E+00  4.8400610444246E-04 -4.6980874381047E-03 -6.3447551495068E-02
194  1.9300000000000E+00  3.2307336481599E-04 -3.4814363708270E-03 -5.0741663392743E-02
195  1.9400000000000E+00  1.9451583721953E-04 -2.4821881209403E-03 -3.9125844362519E-02
196  1.9500000000000E+00  9.8824638620398E-05 -1.6829071759876E-03 -2.8773549717848E-02
197  1.9600000000000E+00  3.4810129836982E-05 -1.0657157544085E-03 -1.9835986434544E-02
198  1.9700000000000E+00 -8.9410410653930E-07 -6.1129258212611E-04 -1.2442706817721E-02
199  1.9800000000000E+00 -1.3814908232703E-05 -2.9924594884686E-04 -6.7027487666798E-03
200  1.9900000000000E+00 -1.1243122568496E-05 -1.0754488527869E-04 -2.6725621516005E-03
201  2.0000000000000E+00 -3.7255167086497E-06 -1.7999009389078E-05 -5.2396401393871E-04
202  2.0100000000000E+00  2.1788250279059E-07  2.5119456031397E-06  5.5386860463018E-05
203  2.0200000000000E+00 -2.6861327937572E-08 -2.0512120121720E-07 -5.1088724589041E-06
204  2.03 -0. -0. -0.
205  2.04  0.  0.  0.
206  2.05  0. -0.  0.
207  2.06  0.  0.  0.
208  2.07  0.  0.  0.
209  2.08  0.  0.  0.
210  2.09  0.  0.  0.
211  2.10  0.  0.  0.
212  2.11  0.  0.  0.
213  2.12  0.  0.  0.
214  2.13  0.  0.  0.
215  2.14  0.  0.  0.
216  2.15  0.  0.  0.
217  2.16  0.  0.  0.
218  2.17  0.  0.  0.
219  2.18  0.  0.  0.
220  2.19  0.  0.  0.
221  2.20  0.  0.  0.
222  2.21  0.  0.  0.
223  2.22  0.  0.  0.
224  2.23  0.  0.  0.
225  2.24  0.  0.  0.
226  2.25  0.  0.  0.
227  2.26  0.  0.  0.
228  2.27  0.  0.  0.
229  2.28  0.  0.  0.
230  2.29  0.  0.  0.
231  2.30  0.  0.  0.
232  2.31  0.  0.  0.
233  2.32  0.  0.  0.
234  2.33  0.  0.  0.
235  2.34  0.  0.  0.
236  2.35  0.  0.  0.
237  2.36  0.  0.  0.
238  2.37  0.  0.  0.
239  2.38  0.  0.  0.
240  2.39  0.  0.  0.
241  2.40  0.  0.  0.
242  2.41  0.  0.  0.
243  2.42  0.  0.  0.
244  2.43  0.  0.  0.
245  2.44  0.  0.  0.
246  2.45  0.  0.  0.
247  2.46  0.  0.  0.
248  2.47  0.  0.  0.
249  2.48  0.  0.  0.
250  2.49  0.  0.  0.
251  2.50  0.  0.  0.
252  2.51  0.  0.  0.
253  2.52  0.  0.  0.
254  2.53  0.  0.  0.
255  2.54  0.  0.  0.
256  2.55  0.  0.  0.
257  2.56  0.  0.  0.
258  2.57  0.  0.  0.
259  2.58  0.  0.  0.
260  2.59  0.  0.  0.
261  2.60  0.  0.  0.
262  2.61  0.  0.  0.
263  2.62  0.  0.  0.
264  2.63  0.  0.  0.
265  2.64  0.  0.  0.
266  2.65  0.  0.  0.
267  2.66  0.  0.  0.
268  2.67  0.  0.  0.
269  2.68  0.  0.  0.
270  2.69  0.  0.  0.
271  2.70  0.  0.  0.
272  2.71  0.  0.  0.
273  2.72  0.  0.  0.
274  2.73  0.  0.  0.
275  2.74  0.  0.  0.
276  2.75  0.  0.  0.
277  2.76  0.  0.  0.
278  2.77  0.  0.  0.
279  2.78  0.  0.  0.
280  2.79  0.  0.  0.
281  2.80  0.  0.  0.
282  2.81  0.  0.  0.
283  2.82  0.  0.  0.
284  2.83  0.  0.  0.
285  2.84  0.  0.  0.
286  2.85  0.  0.  0.
287  2.86  0.  0.  0.
288  2.87  0.  0.  0.
289  2.88  0.  0.  0.
290  2.89  0.  0.  0.
291  2.90  0.  0.  0.
292  2.91  0.  0.  0.
293  2.92  0.  0.  0.
294  2.93  0.  0.  0.
295  2.94  0.  0.  0.
296  2.95  0.  0.  0.
297  2.96  0.  0.  0.
298  2.97  0.  0.  0.
299  2.98  0.  0.  0.
300  2.99  0.  0.  0.
301  3.00  0.  0.  0.
302  3.01  0.  0.  0.
303  3.02  0.  0.  0.
304  3.03  0.  0.  0.
305  3.04  0.  0.  0.
306  3.05  0.  0.  0.
307  3.06  0.  0.  0.
308  3.07  0.  0.  0.
309  3.08  0.  0.  0.
310  3.09  0.  0.  0.
311  3.10  0.  0.  0.
312  3.11  0.  0.  0.
313  3.12  0.  0.  0.
314  3.13  0.  0.  0.
315  3.14  0.  0.  0.
316  3.15  0.  0.  0.
317  3.16  0.  0.  0.
318  3.17  0.  0.  0.
319  3.18  0.  0.  0.
320  3.19  0.  0.  0.
321  3.20  0.  0.  0.
322  3.21  0.  0.  0.
323  3.22  0.  0.  0.
324  3.23  0.  0.  0.
325  3.24  0.  0.  0.
326  3.25  0.  0.  0.
327  3.26  0.  0.  0.
328  3.27  0.  0.  0.
329  3.28  0.  0.  0.
330  3.29  0.  0.  0.
331  3.30  0.  0.  0.
332  3.31  0.  0.  0.
333  3.32  0.  0.  0.
334  3.33  0.  0.  0.
335  3.34  0.  0.  0.
336  3.35  0.  0.  0.
337  3.36  0.  0.  0.
338  3.37  0.  0.  0.
339  3.38  0.  0.  0.
340  3.39  0.  0.  0.
341  3.40  0.  0.  0.
342  3.41  0.  0.  0.
343  3.42  0.  0.  0.
344  3.43  0.  0.  0.
345  3.44  0.  0.  0.
346  3.45  0.  0.  0.
347  3.46  0.  0.  0.
348  3.47  0.  0.  0.
349  3.48  0.  0.  0.
350  3.49  0.  0.  0.
351  3.50  0.  0.  0.
352  3.51  0.  0.  0.
353  3.52  0.  0.  0.
354  3.53  0.  0.  0.
355  3.54  0.  0.  0.
356  3.55  0.  0.  0.
357  3.56  0.  0.  0.
358  3.57  0.  0.  0.
359  3.58  0.  0.  0.
360  3.59  0.  0.  0.
361  3.60  0.  0.  0.
362  3.61  0.  0.  0.
363  3.62  0.  0.  0.
364  3.63  0.  0.  0.
365  3.64  0.  0.  0.
366  3.65  0.  0.  0.
367  3.66  0.  0.  0.
368  3.67  0.  0.  0.
369  3.68  0.  0.  0.
370  3.69  0.  0.  0.
371  3.70  0.  0.  0.
372  3.71  0.  0.  0.
373  3.72  0.  0.  0.
374  3.73  0.  0.  0.
375  3.74  0.  0.  0.
376  3.75  0.  0.  0.
377  3.76  0.  0.  0.
378  3.77  0.  0.  0.
379  3.78  0.  0.  0.
380  3.79  0.  0.  0.
381  3.80  0.  0.  0.
382  3.81  0.  0.  0.
383  3.82  0.  0.  0.
384  3.83  0.  0.  0.
385  3.84  0.  0.  0.
386  3.85  0.  0.  0.
387  3.86  0.  0.  0.
388  3.87  0.  0.  0.
389  3.88  0.  0.  0.
390  3.89  0.  0.  0.
391  3.90  0.  0.  0.
392  3.91  0.  0.  0.
393  3.92  0.  0.  0.
394  3.93  0.  0.  0.
395  3.94  0.  0.  0.
396  3.95  0.  0.  0.
397  3.96  0.  0.  0.
398  3.97  0.  0.  0.
399  3.98  0.  0.  0.
400  3.99  0.  0.  0.
401  4.00  0.  0.  0.
402  4.01  0.  0.  0.
403  4.02  0.  0.  0.
404  4.03  0.  0.  0.
405  4.04  0.  0.  0.
406  4.05  0.  0.  0.
407  4.06  0.  0.  0.
408  4.07  0.  0.  0.
409  4.08  0.  0.  0.
410  4.09  0.  0.  0.
411  4.10  0.  0.  0.
412  4.11  0.  0.  0.
413  4.12  0.  0.  0.
414  4.13  0.  0.  0.
415  4.14  0.  0.  0.
416  4.15  0.  0.  0.
417  4.16  0.  0.  0.
418  4.17  0.  0.  0.
419  4.18  0.  0.  0.
420  4.19  0.  0.  0.
421  4.20  0.  0.  0.
422  4.21  0.  0.  0.
423  4.22  0.  0.  0.
424  4.23  0.  0.  0.
425  4.24  0.  0.  0.
426  4.25  0.  0.  0.
427  4.26  0.  0.  0.
428  4.27  0.  0.  0.
429  4.28  0.  0.  0.
430  4.29  0.  0.  0.
431  4.30  0.  0.  0.
432  4.31  0.  0.  0.
433  4.32  0.  0.  0.
434  4.33  0.  0.  0.
435  4.34  0.  0.  0.
436  4.35  0.  0.  0.
437  4.36  0.  0.  0.
438  4.37  0.  0.  0.
439  4.38  0.  0.  0.
440  4.39  0.  0.  0.
441  4.40  0.  0.  0.
442  4.41  0.  0.  0.
443  4.42  0.  0.  0.
444  4.43  0.  0.  0.
445  4.44  0.  0.  0.
446  4.45  0.  0.  0.
447  4.46  0.  0.  0.
448  4.47  0.  0.  0.
449  4.48  0.  0.  0.
450  4.49  0.  0.  0.
451  4.50  0.  0.  0.
452  4.51  0.  0.  0.
453  4.52  0.  0.  0.
454  4.53  0.  0.  0.
455  4.54  0.  0.  0.
456  4.55  0.  0.  0.
457  4.56  0.  0.  0.
458  4.57  0.  0.  0.
459  4.58  0.  0.  0.
460  4.59  0.  0.  0.
461  4.60  0.  0.  0.
462  4.61  0.  0.  0.
463  4.62  0.  0.  0.
464  4.63  0.  0.  0.
465  4.64  0.  0.  0.
466  4.65  0.  0.  0.
467  4.66  0.  0.  0.
468  4.67  0.  0.  0.
469  4.68  0.  0.  0.
470  4.69  0.  0.  0.
471  4.70  0.  0.  0.
472  4.71  0.  0.  0.
473  4.72  0.  0.  0.
474  4.73  0.  0.  0.
475  4.74  0.  0.  0.
476  4.75  0.  0.  0.
477  4.76  0.  0.  0.
478  4.77  0.  0.  0.
479  4.78  0.  0.  0.
480  4.79  0.  0.  0.
481  4.80  0.  0.  0.
482  4.81  0.  0.  0.
483  4.82  0.  0.  0.
484  4.83  0.  0.  0.
485  4.84  0.  0.  0.
486  4.85  0.  0.  0.
487  4.86  0.  0.  0.
488  4.87  0.  0.  0.
489  4.88  0.  0.  0.
490  4.89  0.  0.  0.
491  4.90  0.  0.  0.
492  4.91  0.  0.  0.
493  4.92  0.  0.  0.
494  4.93  0.  0.  0.
495  4.94  0.  0.  0.
496  4.95  0.  0.  0.
497  4.96  0.  0.  0.
498  4.97  0.  0.  0.
499  4.98  0.  0.  0.
500  4.99  0.  0.  0.
501  5.00  0.  0.  0.
502  5.01  0.  0.  0.
503  5.02  0.  0.  0.
504  5.03  0.  0.  0.
505  5.04  0.  0.  0.
506  5.05  0.  0.  0.
507  5.06  0.  0.  0.
508  5.07  0.  0.  0.
509  5.08  0.  0.  0.
510  5.09  0.  0.  0.
511  5.10  0.  0.  0.
512  5.11  0.  0.  0.
513  5.12  0.  0.  0.
514  5.13  0.  0.  0.
515  5.14  0.  0.  0.
516  5.15  0.  0.  0.
517  5.16  0.  0.  0.
518  5.17  0.  0.  0.
519  5.18  0.  0.  0.
520  5.19  0.  0.  0.
521  5.20  0.  0.  0.
522  5.21  0.  0.  0.
523  5.22  0.  0.  0.
524  5.23  0.  0.  0.
525  5.24  0.  0.  0.
526  5.25  0.  0.  0.
527  5.26  0.  0.  0.
528  5.27  0.  0.  0.
529  5.28  0.  0.  0.
530  5.29  0.  0.  0.
531  5.30  0.  0.  0.
532  5.31  0.  0.  0.
533  5.32  0.  0.  0.
534  5.33  0.  0.  0.
535  5.34  0.  0.  0.
536  5.35  0.  0.  0.
537  5.36  0.  0.  0.
538  5.37  0.  0.  0.
539  5.38  0.  0.  0.
540  5.39  0.  0.  0.
541  5.40  0.  0.  0.
542  5.41  0.  0.  0.
543  5.42  0.  0.  0.
544  5.43  0.  0.  0.
545  5.44  0.  0.  0.
546  5.45  0.  0.  0.
547  5.46  0.  0.  0.
548  5.47  0.  0.  0.
549  5.48  0.  0.  0.
550  5.49  0.  0.  0.
551  5.50  0.  0.  0.
552  5.51  0.  0.  0.
553  5.52  0.  0.  0.
554  5.53  0.  0.  0.
555  5.54  0.  0.  0.
556  5.55  0.  0.  0.
557  5.56  0.  0.  0.
558  5.57  0.  0.  0.
559  5.58  0.  0.  0.
560  5.59  0.  0.  0.
561  5.60  0.  0.  0.
562  5.61  0.  0.  0.
563  5.62  0.  0.  0.
564  5.63  0.  0.  0.
565  5.64  0.  0.  0.
566  5.65  0.  0.  0.
567  5.66  0.  0.  0.
568  5.67  0.  0.  0.
569  5.68  0.  0.  0.
570  5.69  0.  0.  0.
571  5.70  0.  0.  0.
572  5.71  0.  0.  0.
573  5.72  0.  0.  0.
574  5.73  0.  0.  0.
575  5.74  0.  0.  0.
576  5.75  0.  0.  0.
577  5.76  0.  0.  0.
578  5.77  0.  0.  0.
579  5.78  0.  0.  0.
580  5.79  0.  0.  0.
581  5.80  0.  0.  0.
582  5.81  0.  0.  0.
583  5.82  0.  0.  0.
584  5.83  0.  0.  0.
585  5.84  0.  0.  0.
586  5.85  0.  0.  0.
587  5.86  0.  0.  0.
588  5.87  0.  0.  0.
589  5.88  0.  0.  0.
590  5.89  0.  0.  0.
591  5.90  0.  0.  0.
592  5.91  0.  0.  0.
593  5.92  0.  0.  0.
594  5.93  0.  0.  0.
595  5.94  0.  0.  0.
596  5.95  0.  0.  0.
597  5.96  0.  0.  0.
598  5.97  0.  0.  0.
599  5.98  0.  0.  0.
600  5.99  0.  0.  0.
1                         6.6618075317012E+00  5.8234259425524E-01
1  0.0000000000000E+00  6.9899293297926E-09 -3.3702985763329E-08
2  1.0000000000000E-02  1.1886721089141E-03 -2.6847850315269E-03
3  2.0000000000000E-02  4.7428622620430E-03 -1.0685724817177E-02
4  3.0000000000000E-02  1.0627305380938E-02 -2.3843611802905E-02
5  4.0000000000000E-02  1.8783933714330E-02 -4.1896541606961E-02
6  5.0000000000000E-02  2.9132923651107E-02 -6.4485006743898E-02
7  6.0000000000000E-02  4.1574133020871E-02 -9.1158891966133E-02
8  7.0000000000000E-02  5.5988901280933E-02 -1.2138623837194E-01
9  8.0000000000000E-02  7.2242177998613E-02 -1.5456360972574E-01
10  9.0000000000000E-02  9.0184938697461E-02 -1.9002786381859E-01
11  1.0000000000000E-01  1.0965684156517E-01 -2.2706910473441E-01
12  1.1000000000000E-01  1.3048907382537E-01 -2.6494456908459E-01
13  1.2000000000000E-01  1.5250733284506E-01 -3.0289318106014E-01
14  1.3000000000000E-01  1.7553488435633E-01 -3.4015049787137E-01
15  1.4000000000000E-01  1.9939563856826E-01 -3.7596375905859E-01
16  1.5000000000000E-01  2.2391718446611E-01 -4.0960675042358E-01
17  1.6000000000000E-01  2.4893372325164E-01 -4.4039419601757E-01
18  1.7000000000000E-01  2.7428884366337E-01 -4.6769539969056E-01
19  1.8000000000000E-01  2.9983808479810E-01 -4.9094687102879E-01
20  1.9000000000000E-01  3.2545123598598E-01 -5.0966368884889E-01
21  2.0000000000000E-01  3.5101432818089E-01 -5.2344937845992E-01
22  2.1000000000000E-01  3.7643127712821E-01 -5.3200410623496E-01
23  2.2000000000000E-01  4.0162514515769E-01 -5.3513102616374E-01
24  2.3000000000000E-01  4.2653899570077E-01 -5.3274064742448E-01
25  2.4000000000000E-01  4.5113632241585E-01 -5.2485312899118E-01
26  2.5000000000000E-01  4.7540104297792E-01 -5.1159844620931E-01
27  2.6000000000000E-01  4.9933705599946E-01 -4.9321441441101E-01
28  2.7000000000000E-01  5.2296736804020E-01 -4.7004259526285E-01
29  2.8000000000000E-01  5.4633280607425E-01 -4.4252215188960E-01
30  2.9000000000000E-01  5.6949033895667E-01 -4.1118175814483E-01
31  3.0000000000000E-01  5.9251103920999E-01 -3.7662970496460E-01
32  3.1000000000000E-01  6.1547772368701E-01 -3.3954238183492E-01
33  3.2000000000000E-01  6.3848231821767E-01 -3.0065134335639E-01
34  3.3000000000000E-01  6.6162299708689E-01 -2.6072919908782E-01
35  3.4000000000000E-01  6.8500115300227E-01 -2.2057458874149E-01
36  3.5000000000000E-01  7.0871825699742E-01 -1.8099652391581E-01
37  3.6000000000000E-01  7.3287267039866E-01 -1.4279839149425E-01
38  3.7000000000000E-01  7.5755647250009E-01 -1.0676192231961E-01
39  3.8000000000000E-01  7.8285236790643E-01 -7.3631431571411E-02
40  3.9000000000000E-01  8.0883073659766E-01 -4.4098634340039E-02
41  4.0000000000000E-01  8.3554688765160E-01 -1.8788331216208E-02
42  4.1000000000000E-01  8.6303857425858E-01  1.7547555801139E-03
43  4.2000000000000E-01  8.9132382322832E-01  1.7077734696312E-02
44  4.3000000000000E-01  9.2039912669676E-01  2.6829650689197E-02
45  4.4000000000000E-01  9.5023803728283E-01  3.0769734927995E-02
46  4.5000000000000E-01  9.8079020063642E-01  2.8773629194357E-02