Sm    ONCVPSP-4.0.1  r_core=   2.00717   1.60864   1.90196   1.60864
62.0000     16.0000      241101    zatom,zion,pspd
8      11   3     4   600     0    pspcod,pspxc,lmax,lloc,mmax,r2well
5.99000000  4.00000000  0.00000000    rchrg fchrg qchrg
2     2     2     2     0    nproj
1     1           extension_switch
0                         6.9408228402642E+00  4.7740550504829E-01
1  0.0000000000000E+00  7.6878059473984E-11 -3.4312324509456E-10
2  1.0000000000000E-02  3.9531695878549E-02 -4.2122051093538E-03
3  2.0000000000000E-02  7.9045779574285E-02 -8.4679908392698E-03
4  3.0000000000000E-02  1.1852446235487E-01 -1.2810194148269E-02
5  4.0000000000000E-02  1.5794960443112E-01 -1.7280173073319E-02
6  5.0000000000000E-02  1.9730254451431E-01 -2.1917088187385E-02
7  6.0000000000000E-02  2.3656393542153E-01 -2.6757208913564E-02
8  7.0000000000000E-02  2.7571358765402E-01 -3.1833252574883E-02
9  8.0000000000000E-02  3.1473032279663E-01 -3.7173763715728E-02
10  9.0000000000000E-02  3.5359183849183E-01 -4.2802540808420E-02
11  1.0000000000000E-01  3.9227458662983E-01 -4.8738116960887E-02
12  1.1000000000000E-01  4.3075366626911E-01 -5.4993300673863E-02
13  1.2000000000000E-01  4.6900273265881E-01 -6.1574782063814E-02
14  1.3000000000000E-01  5.0699392357931E-01 -6.8482809277914E-02
15  1.4000000000000E-01  5.4469780404943E-01 -7.5710939086004E-02
16  1.5000000000000E-01  5.8208333027083E-01 -8.3245864849719E-02
17  1.6000000000000E-01  6.1911783349389E-01 -9.1067324248326E-02
18  1.7000000000000E-01  6.5576702429577E-01 -9.9148088292835E-02
19  1.8000000000000E-01  6.9199501756315E-01 -1.0745403229314E-01
20  1.9000000000000E-01  7.2776437827062E-01 -1.1594428856623E-01
21  2.0000000000000E-01  7.6303618794290E-01 -1.2457147979558E-01
22  2.1000000000000E-01  7.9777013148720E-01 -1.3328203108223E-01
23  2.2000000000000E-01  8.3192460388242E-01 -1.4201655787493E-01
24  2.3000000000000E-01  8.6545683601753E-01 -1.5071032613990E-01
25  2.4000000000000E-01  8.9832303878242E-01 -1.5929378033769E-01
26  2.5000000000000E-01  9.3047856433498E-01 -1.6769313402513E-01
27  2.6000000000000E-01  9.6187808329743E-01 -1.7583101720006E-01
28  2.7000000000000E-01  9.9247577647654E-01 -1.8362717386608E-01
29  2.8000000000000E-01  1.0222255395567E+00 -1.9099920271715E-01
30  2.9000000000000E-01  1.0510811990842E+00 -1.9786333333710E-01
31  3.0000000000000E-01  1.0789967379447E+00 -2.0413522988051E-01
32  3.1000000000000E-01  1.1059265284399E+00 -2.0973081385435E-01
33  3.2000000000000E-01  1.1318255709860E+00 -2.1456709735868E-01
34  3.3000000000000E-01  1.1566497363980E+00 -2.1856301797242E-01
35  3.4000000000000E-01  1.1803560096784E+00 -2.2164026638909E-01
36  3.5000000000000E-01  1.2029027332096E+00 -2.2372409791888E-01
37  3.6000000000000E-01  1.2242498472424E+00 -2.2474411907798E-01
38  3.7000000000000E-01  1.2443591255952E+00 -2.2463504068349E-01
39  3.8000000000000E-01  1.2631944045106E+00 -2.2333738916044E-01
40  3.9000000000000E-01  1.2807218026772E+00 -2.2079816814485E-01
41  4.0000000000000E-01  1.2969099304962E+00 -2.1697146292949E-01
42  4.1000000000000E-01  1.3117300867689E+00 -2.1181898084311E-01
43  4.2000000000000E-01  1.3251564410922E+00 -2.0531052127444E-01
44  4.3000000000000E-01  1.3371662003736E+00 -1.9742436974304E-01
45  4.4000000000000E-01  1.3477397580239E+00 -1.8814761117381E-01
46  4.5000000000000E-01  1.3568608245390E+00 -1.7747635834259E-01
47  4.6000000000000E-01  1.3645165383512E+00 -1.6541589232055E-01
48  4.7000000000000E-01  1.3706975560084E+00 -1.5198071264320E-01
49  4.8000000000000E-01  1.3753981209285E+00 -1.3719449586085E-01
50  4.9000000000000E-01  1.3786161101673E+00 -1.2108996207842E-01
51  5.0000000000000E-01  1.3803530588413E+00 -1.0370865005516E-01
52  5.1000000000000E-01  1.3806141620445E+00 -8.5100602400491E-02
53  5.2000000000000E-01  1.3794082543037E+00 -6.5323963357373E-02
54  5.3000000000000E-01  1.3767477668182E+00 -4.4444492603804E-02
55  5.4000000000000E-01  1.3726486629283E+00 -2.2534999411829E-02
56  5.5000000000000E-01  1.3671303524488E+00  3.2529762435478E-04
57  5.6000000000000E-01  1.3602155856949E+00  2.4051479255254E-02
58  5.7000000000000E-01  1.3519303281994E+00  4.8553695834008E-02
59  5.8000000000000E-01  1.3423036172939E+00  7.3737991658556E-02
60  5.9000000000000E-01  1.3313674018753E+00  9.9507175259615E-02
61  6.0000000000000E-01  1.3191563668261E+00  1.2576172694631E-01
62  6.1000000000000E-01  1.3057077436779E+00  1.5240073445529E-01
63  6.2000000000000E-01  1.2910611092210E+00  1.7932284717635E-01
64  6.3000000000000E-01  1.2752581738534E+00  2.0642723914990E-01
65  6.4000000000000E-01  1.2583425615368E+00  2.3361457085406E-01
66  6.5000000000000E-01  1.2403595832838E+00  2.6078793972300E-01
67  6.6000000000000E-01  1.2213560061337E+00  2.8785380936653E-01
68  6.7000000000000E-01  1.2013798195944E+00  3.1472290759228E-01
69  6.8000000000000E-01  1.1804800015211E+00  3.4131108356652E-01
70  6.9000000000000E-01  1.1587062853818E+00  3.6754011478652E-01
71  7.0000000000000E-01  1.1361089308170E+00  3.9333845497064E-01
72  7.1000000000000E-01  1.1127384993415E+00  4.1864191450199E-01
73  7.2000000000000E-01  1.0886456369582E+00  4.4339426567876E-01
74  7.3000000000000E-01  1.0638808653582E+00  4.6754776572554E-01
75  7.4000000000000E-01  1.0384943832739E+00  4.9106359129686E-01
76  7.5000000000000E-01  1.0125358794252E+00  5.1391217905005E-01
77  7.6000000000000E-01  9.8605435836420E-01  5.3607346776937E-01
78  7.7000000000000E-01  9.5909798037426E-01  5.5753703847921E-01
79  7.8000000000000E-01  9.3171391642430E-01  5.7830214998062E-01
80  7.9000000000000E-01  9.0394821901211E-01  5.9837766827261E-01
81  8.0000000000000E-01  8.7584570956244E-01  6.1778188936551E-01
82  8.1000000000000E-01  8.4744988287026E-01  6.3654225605046E-01
83  8.2000000000000E-01  8.1880282890472E-01  6.5469497024202E-01
84  8.3000000000000E-01  7.8994517211314E-01  6.7228450355312E-01
85  8.4000000000000E-01  7.6091602819180E-01  6.8936300977826E-01
86  8.5000000000000E-01  7.3175297811973E-01  7.0598964394598E-01
87  8.6000000000000E-01  7.0249205908895E-01  7.2222979354216E-01
88  8.7000000000000E-01  6.7316777180727E-01  7.3815422839284E-01
89  8.8000000000000E-01  6.4381310350278E-01  7.5383817652215E-01
90  8.9000000000000E-01  6.1445956582157E-01  7.6936033405749E-01
91  9.0000000000000E-01  5.8513724668443E-01  7.8480181793415E-01
92  9.1000000000000E-01  5.5587487505514E-01  8.0024507075015E-01
93  9.2000000000000E-01  5.2669989747280E-01  8.1577272763192E-01
94  9.3000000000000E-01  4.9763856511506E-01  8.3146645539142E-01
95  9.4000000000000E-01  4.6871603008732E-01  8.4740577458037E-01
96  9.5000000000000E-01  4.3995644957628E-01  8.6366687527699E-01
97  9.6000000000000E-01  4.1138309646386E-01  8.8032143757518E-01
98  9.7000000000000E-01  3.8301847496973E-01  8.9743546778461E-01
99  9.8000000000000E-01  3.5488443987642E-01  9.1506816129692E-01
100  9.9000000000000E-01  3.2700231789051E-01  9.3327080292846E-01
101  1.0000000000000E+00  2.9939302970479E-01  9.5208571532140E-01
102  1.0100000000000E+00  2.7207721134936E-01  9.7154526567391E-01
103  1.0200000000000E+00  2.4507533345285E-01  9.9167094068599E-01
104  1.0300000000000E+00  2.1840781707702E-01  1.0124724991537E+00
105  1.0400000000000E+00  1.9209514483755E-01  1.0339472111318E+00
106  1.0500000000000E+00  1.6615796607949E-01  1.0560791920181E+00
107  1.0600000000000E+00  1.4061719493587E-01  1.0788388393011E+00
108  1.0700000000000E+00  1.1549410016105E-01  1.1021823790678E+00
109  1.0800000000000E+00  9.0810385694890E-02  1.1260515286878E+00
110  1.0900000000000E+00  6.6588260978425E-02  1.1503732814006E+00
111  1.1000000000000E+00  4.2850500104757E-02  1.1750598178189E+00
112  1.1100000000000E+00  1.9620488949840E-02  1.2000085486518E+00
113  1.1200000000000E+00 -3.0777405153102E-03  1.2251022922359E+00
114  1.1300000000000E+00 -2.5219489476345E-02  1.2502095897578E+00
115  1.1400000000000E+00 -4.6779385789130E-02  1.2751851603553E+00
116  1.1500000000000E+00 -6.7731392410026E-02  1.2998704976019E+00
117  1.1600000000000E+00 -8.8048831360695E-02  1.3240946082112E+00
118  1.1700000000000E+00 -1.0770442381254E-01  1.3476748931471E+00
119  1.1800000000000E+00 -1.2667034684767E-01  1.3704181706826E+00
120  1.1900000000000E+00 -1.4491830742791E-01  1.3921218403238E+00
121  1.2000000000000E+00 -1.6241963407980E-01  1.4125751858852E+00
122  1.2100000000000E+00 -1.7914538677966E-01  1.4315608153753E+00
123  1.2200000000000E+00 -1.9506648549598E-01  1.4488562347043E+00
124  1.2300000000000E+00 -2.1015385781500E-01  1.4642355515625E+00
125  1.2400000000000E+00 -2.2437860603452E-01  1.4774713051028E+00
126  1.2500000000000E+00 -2.3771219405885E-01  1.4883364163063E+00
127  1.2600000000000E+00 -2.5012665435946E-01  1.4966062530704E+00
128  1.2700000000000E+00 -2.6159481517659E-01  1.5020608031333E+00
129  1.2800000000000E+00 -2.7209054802339E-01  1.5044869469077E+00
130  1.2900000000000E+00 -2.8158903540973E-01  1.5036808211183E+00
131  1.3000000000000E+00 -2.9006705852201E-01  1.4994502627927E+00
132  1.3100000000000E+00 -2.9750330437394E-01  1.4916173216226E+00
133  1.3200000000000E+00 -3.0387869167354E-01  1.4800208269645E+00
134  1.3300000000000E+00 -3.0917671432711E-01  1.4645189937387E+00
135  1.3400000000000E+00 -3.1338380111615E-01  1.4449920492040E+00
136  1.3500000000000E+00 -3.1648968963199E-01  1.4213448599952E+00
137  1.3600000000000E+00 -3.1848781202360E-01  1.3935095358510E+00
138  1.3700000000000E+00 -3.1937568950561E-01  1.3614479831379E+00
139  1.3800000000000E+00 -3.1915533187267E-01  1.3251543775132E+00
140  1.3900000000000E+00 -3.1783363747234E-01  1.2846575208783E+00
141  1.4000000000000E+00 -3.1542278818344E-01  1.2400230430458E+00
142  1.4100000000000E+00 -3.1194063293267E-01  1.1913554033097E+00
143  1.4200000000000E+00 -3.0741105214581E-01  1.1387996412863E+00
144  1.4300000000000E+00 -3.0186429425980E-01  1.0825428199370E+00
145  1.4400000000000E+00 -2.9533727402283E-01  1.0228150966105E+00
146  1.4500000000000E+00 -2.8787382074948E-01  9.5989035009024E-01
147  1.4600000000000E+00 -2.7952486299246E-01  8.9408628308710E-01
148  1.4700000000000E+00 -2.7034853421704E-01  8.2576391024172E-01
149  1.4800000000000E+00 -2.6041018201378E-01  7.5532633148030E-01
150  1.4900000000000E+00 -2.4978226114700E-01  6.8321667942905E-01
151  1.5000000000000E+00 -2.3854408830915E-01  6.0991511752911E-01
152  1.5100000000000E+00 -2.2678143381128E-01  5.3593475238611E-01
153  1.5200000000000E+00 -2.1458592258076E-01  4.6181630970017E-01
154  1.5300000000000E+00 -2.0205421375667E-01  3.8812140783786E-01
155  1.5400000000000E+00 -1.8928692484369E-01  3.1542424658802E-01
156  1.5500000000000E+00 -1.7638726280380E-01  2.4430151086870E-01
157  1.5600000000000E+00 -1.6345932061491E-01  1.7532027003669E-01
158  1.5700000000000E+00 -1.5060599369302E-01  1.0902363292058E-01
159  1.5800000000000E+00 -1.3792646614506E-01  4.5913896674922E-02
160  1.5900000000000E+00 -1.2551321019885E-01 -1.3567109847387E-02
161  1.6000000000000E+00 -1.1344846489180E-01 -6.9060605479665E-02
162  1.6100000000000E+00 -1.0179998020448E-01 -1.2031781615285E-01
163  1.6200000000000E+00 -9.0617855442402E-02 -1.6721737073316E-01
164  1.6300000000000E+00 -7.9940337726138E-02 -2.0971549774119E-01
165  1.6400000000000E+00 -6.9800493165299E-02 -2.4779338284910E-01
166  1.6500000000000E+00 -6.0226364037676E-02 -2.8145551293801E-01
167  1.6600000000000E+00 -5.1240923206087E-02 -3.1072966086313E-01
168  1.6700000000000E+00 -4.2862034234605E-02 -3.3566694261598E-01
169  1.6800000000000E+00 -3.5102448450193E-02 -3.5634169855596E-01
170  1.6900000000000E+00 -2.7969842224770E-02 -3.7285117562059E-01
171  1.7000000000000E+00 -2.1466893291395E-02 -3.8531501948269E-01
172  1.7100000000000E+00 -1.5591395738214E-02 -3.9387457832863E-01
173  1.7200000000000E+00 -1.0336412913048E-02 -3.9869202211576E-01
174  1.7300000000000E+00 -5.6904672117589E-03 -3.9994928230857E-01
175  1.7400000000000E+00 -1.6377651373870E-03 -3.9784682044812E-01
176  1.7500000000000E+00  1.8415437968281E-03 -3.9260223211923E-01
177  1.7600000000000E+00  4.7710756958380E-03 -3.8444869199314E-01
178  1.7700000000000E+00  7.1778946973650E-03 -3.7363327779824E-01
179  1.7800000000000E+00  9.0921641093062E-03 -3.6041513485441E-01
180  1.7900000000000E+00  1.0546777472897E-02 -3.4506355121910E-01
181  1.8000000000000E+00  1.1576967417384E-02 -3.2785592388455E-01
182  1.8100000000000E+00  1.2219897378837E-02 -3.0907564433820E-01
183  1.8200000000000E+00  1.2514239484937E-02 -2.8900991965929E-01
184  1.8300000000000E+00  1.2499742179910E-02 -2.6794754691014E-01
185  1.8400000000000E+00  1.2216791320544E-02 -2.4617665945591E-01
186  1.8500000000000E+00  1.1705968564925E-02 -2.2398246431735E-01
187  1.8600000000000E+00  1.1007610897090E-02 -2.0164498974580E-01
188  1.8700000000000E+00  1.0161376199519E-02 -1.7943686636748E-01
189  1.8800000000000E+00  9.2058101840022E-03 -1.5762112815304E-01
190  1.8900000000000E+00  8.1779465914745E-03 -1.3644916041036E-01
191  1.9000000000000E+00  7.1129043259234E-03 -1.1615865749929E-01
192  1.9100000000000E+00  6.0431187910396E-03 -9.6970211801811E-02
193  1.9200000000000E+00  4.9961321026625E-03 -7.9078181438715E-02
194  1.9300000000000E+00  3.9988355784202E-03 -6.2666714566324E-02
195  1.9400000000000E+00  3.0766652508115E-03 -4.7906499224423E-02
196  1.9500000000000E+00  2.2510022171552E-03 -3.4944492159517E-02
197  1.9600000000000E+00  1.5393354434253E-03 -2.3904210383103E-02
198  1.9700000000000E+00  9.5500766731038E-04 -1.4884501371724E-02
199  1.9800000000000E+00  5.0723152590800E-04 -7.9616322587080E-03
200  1.9900000000000E+00  1.9880770794710E-04 -3.1528754496862E-03
201  2.0000000000000E+00  3.8051299315639E-05 -6.1245813393912E-04
202  2.0100000000000E+00 -4.0594552665675E-06  6.6003335954855E-05
203  2.0200000000000E+00  3.7389772303515E-07 -6.0321192773591E-06
204  2.03  0. -0.
205  2.04 -0.  0.
206  2.05 -0.  0.
207  2.06  0.  0.
208  2.07  0.  0.
209  2.08  0.  0.
210  2.09  0.  0.
211  2.10  0.  0.
212  2.11  0.  0.
213  2.12  0.  0.
214  2.13  0.  0.
215  2.14  0.  0.
216  2.15  0.  0.
217  2.16  0.  0.
218  2.17  0.  0.
219  2.18  0.  0.
220  2.19  0.  0.
221  2.20  0.  0.
222  2.21  0.  0.
223  2.22  0.  0.
224  2.23  0.  0.
225  2.24  0.  0.
226  2.25  0.  0.
227  2.26  0.  0.
228  2.27  0.  0.
229  2.28  0.  0.
230  2.29  0.  0.
231  2.30  0.  0.
232  2.31  0.  0.
233  2.32  0.  0.
234  2.33  0.  0.
235  2.34  0.  0.
236  2.35  0.  0.
237  2.36  0.  0.
238  2.37  0.  0.
239  2.38  0.  0.
240  2.39  0.  0.
241  2.40  0.  0.
242  2.41  0.  0.
243  2.42  0.  0.
244  2.43  0.  0.
245  2.44  0.  0.
246  2.45  0.  0.
247  2.46  0.  0.
248  2.47  0.  0.
249  2.48  0.  0.
250  2.49  0.  0.
251  2.50  0.  0.
252  2.51  0.  0.
253  2.52  0.  0.
254  2.53  0.  0.
255  2.54  0.  0.
256  2.55  0.  0.
257  2.56  0.  0.
258  2.57  0.  0.
259  2.58  0.  0.
260  2.59  0.  0.
261  2.60  0.  0.
262  2.61  0.  0.
263  2.62  0.  0.
264  2.63  0.  0.
265  2.64  0.  0.
266  2.65  0.  0.
267  2.66  0.  0.
268  2.67  0.  0.
269  2.68  0.  0.
270  2.69  0.  0.
271  2.70  0.  0.
272  2.71  0.  0.
273  2.72  0.  0.
274  2.73  0.  0.
275  2.74  0.  0.
276  2.75  0.  0.
277  2.76  0.  0.
278  2.77  0.  0.
279  2.78  0.  0.
280  2.79  0.  0.
281  2.80  0.  0.
282  2.81  0.  0.
283  2.82  0.  0.
284  2.83  0.  0.
285  2.84  0.  0.
286  2.85  0.  0.
287  2.86  0.  0.
288  2.87  0.  0.
289  2.88  0.  0.
290  2.89  0.  0.
291  2.90  0.  0.
292  2.91  0.  0.
293  2.92  0.  0.
294  2.93  0.  0.
295  2.94  0.  0.
296  2.95  0.  0.
297  2.96  0.  0.
298  2.97  0.  0.
299  2.98  0.  0.
300  2.99  0.  0.
301  3.00  0.  0.
302  3.01  0.  0.
303  3.02  0.  0.
304  3.03  0.  0.
305  3.04  0.  0.
306  3.05  0.  0.
307  3.06  0.  0.
308  3.07  0.  0.
309  3.08  0.  0.
310  3.09  0.  0.
311  3.10  0.  0.
312  3.11  0.  0.
313  3.12  0.  0.
314  3.13  0.  0.
315  3.14  0.  0.
316  3.15  0.  0.
317  3.16  0.  0.
318  3.17  0.  0.
319  3.18  0.  0.
320  3.19  0.  0.
321  3.20  0.  0.
322  3.21  0.  0.
323  3.22  0.  0.
324  3.23  0.  0.
325  3.24  0.  0.
326  3.25  0.  0.
327  3.26  0.  0.
328  3.27  0.  0.
329  3.28  0.  0.
330  3.29  0.  0.
331  3.30  0.  0.
332  3.31  0.  0.
333  3.32  0.  0.
334  3.33  0.  0.
335  3.34  0.  0.
336  3.35  0.  0.
337  3.36  0.  0.
338  3.37  0.  0.
339  3.38  0.  0.
340  3.39  0.  0.
341  3.40  0.  0.
342  3.41  0.  0.
343  3.42  0.  0.
344  3.43  0.  0.
345  3.44  0.  0.
346  3.45  0.  0.
347  3.46  0.  0.
348  3.47  0.  0.
349  3.48  0.  0.
350  3.49  0.  0.
351  3.50  0.  0.
352  3.51  0.  0.
353  3.52  0.  0.
354  3.53  0.  0.
355  3.54  0.  0.
356  3.55  0.  0.
357  3.56  0.  0.
358  3.57  0.  0.
359  3.58  0.  0.
360  3.59  0.  0.
361  3.60  0.  0.
362  3.61  0.  0.
363  3.62  0.  0.
364  3.63  0.  0.
365  3.64  0.  0.
366  3.65  0.  0.
367  3.66  0.  0.
368  3.67  0.  0.
369  3.68  0.  0.
370  3.69  0.  0.
371  3.70  0.  0.
372  3.71  0.  0.
373  3.72  0.  0.
374  3.73  0.  0.
375  3.74  0.  0.
376  3.75  0.  0.
377  3.76  0.  0.
378  3.77  0.  0.
379  3.78  0.  0.
380  3.79  0.  0.
381  3.80  0.  0.
382  3.81  0.  0.
383  3.82  0.  0.
384  3.83  0.  0.
385  3.84  0.  0.
386  3.85  0.  0.
387  3.86  0.  0.
388  3.87  0.  0.
389  3.88  0.  0.
390  3.89  0.  0.
391  3.90  0.  0.
392  3.91  0.  0.
393  3.92  0.  0.
394  3.93  0.  0.
395  3.94  0.  0.
396  3.95  0.  0.
397  3.96  0.  0.
398  3.97  0.  0.
399  3.98  0.  0.
400  3.99  0.  0.
401  4.00  0.  0.
402  4.01  0.  0.
403  4.02  0.  0.
404  4.03  0.  0.
405  4.04  0.  0.
406  4.05  0.  0.
407  4.06  0.  0.
408  4.07  0.  0.
409  4.08  0.  0.
410  4.09  0.  0.
411  4.10  0.  0.
412  4.11  0.  0.
413  4.12  0.  0.
414  4.13  0.  0.
415  4.14  0.  0.
416  4.15  0.  0.
417  4.16  0.  0.
418  4.17  0.  0.
419  4.18  0.  0.
420  4.19  0.  0.
421  4.20  0.  0.
422  4.21  0.  0.
423  4.22  0.  0.
424  4.23  0.  0.
425  4.24  0.  0.
426  4.25  0.  0.
427  4.26  0.  0.
428  4.27  0.  0.
429  4.28  0.  0.
430  4.29  0.  0.
431  4.30  0.  0.
432  4.31  0.  0.
433  4.32  0.  0.
434  4.33  0.  0.
435  4.34  0.  0.
436  4.35  0.  0.
437  4.36  0.  0.
438  4.37  0.  0.
439  4.38  0.  0.
440  4.39  0.  0.
441  4.40  0.  0.
442  4.41  0.  0.
443  4.42  0.  0.
444  4.43  0.  0.
445  4.44  0.  0.
446  4.45  0.  0.
447  4.46  0.  0.
448  4.47  0.  0.
449  4.48  0.  0.
450  4.49  0.  0.
451  4.50  0.  0.
452  4.51  0.  0.
453  4.52  0.  0.
454  4.53  0.  0.
455  4.54  0.  0.
456  4.55  0.  0.
457  4.56  0.  0.
458  4.57  0.  0.
459  4.58  0.  0.
460  4.59  0.  0.
461  4.60  0.  0.
462  4.61  0.  0.
463  4.62  0.  0.
464  4.63  0.  0.
465  4.64  0.  0.
466  4.65  0.  0.
467  4.66  0.  0.
468  4.67  0.  0.
469  4.68  0.  0.
470  4.69  0.  0.
471  4.70  0.  0.
472  4.71  0.  0.
473  4.72  0.  0.
474  4.73  0.  0.
475  4.74  0.  0.
476  4.75  0.  0.
477  4.76  0.  0.
478  4.77  0.  0.
479  4.78  0.  0.
480  4.79  0.  0.
481  4.80  0.  0.
482  4.81  0.  0.
483  4.82  0.  0.
484  4.83  0.  0.
485  4.84  0.  0.
486  4.85  0.  0.
487  4.86  0.  0.
488  4.87  0.  0.
489  4.88  0.  0.
490  4.89  0.  0.
491  4.90  0.  0.
492  4.91  0.  0.
493  4.92  0.  0.
494  4.93  0.  0.
495  4.94  0.  0.
496  4.95  0.  0.
497  4.96  0.  0.
498  4.97  0.  0.
499  4.98  0.  0.
500  4.99  0.  0.
501  5.00  0.  0.
502  5.01  0.  0.
503  5.02  0.  0.
504  5.03  0.  0.
505  5.04  0.  0.
506  5.05  0.  0.
507  5.06  0.  0.
508  5.07  0.  0.
509  5.08  0.  0.
510  5.09  0.  0.
511  5.10  0.  0.
512  5.11  0.  0.
513  5.12  0.  0.
514  5.13  0.  0.
515  5.14  0.  0.
516  5.15  0.  0.
517  5.16  0.  0.
518  5.17  0.  0.
519  5.18  0.  0.
520  5.19  0.  0.
521  5.20  0.  0.
522  5.21  0.  0.
523  5.22  0.  0.
524  5.23  0.  0.
525  5.24  0.  0.
526  5.25  0.  0.
527  5.26  0.  0.
528  5.27  0.  0.
529  5.28  0.  0.
530  5.29  0.  0.
531  5.30  0.  0.
532  5.31  0.  0.
533  5.32  0.  0.
534  5.33  0.  0.
535  5.34  0.  0.
536  5.35  0.  0.
537  5.36  0.  0.
538  5.37  0.  0.
539  5.38  0.  0.
540  5.39  0.  0.
541  5.40  0.  0.
542  5.41  0.  0.
543  5.42  0.  0.
544  5.43  0.  0.
545  5.44  0.  0.
546  5.45  0.  0.
547  5.46  0.  0.
548  5.47  0.  0.
549  5.48  0.  0.
550  5.49  0.  0.
551  5.50  0.  0.
552  5.51  0.  0.
553  5.52  0.  0.
554  5.53  0.  0.
555  5.54  0.  0.
556  5.55  0.  0.
557  5.56  0.  0.
558  5.57  0.  0.
559  5.58  0.  0.
560  5.59  0.  0.
561  5.60  0.  0.
562  5.61  0.  0.
563  5.62  0.  0.
564  5.63  0.  0.
565  5.64  0.  0.
566  5.65  0.  0.
567  5.66  0.  0.
568  5.67  0.  0.
569  5.68  0.  0.
570  5.69  0.  0.
571  5.70  0.  0.
572  5.71  0.  0.
573  5.72  0.  0.
574  5.73  0.  0.
575  5.74  0.  0.
576  5.75  0.  0.
577  5.76  0.  0.
578  5.77  0.  0.
579  5.78  0.  0.
580  5.79  0.  0.
581  5.80  0.  0.
582  5.81  0.  0.
583  5.82  0.  0.
584  5.83  0.  0.
585  5.84  0.  0.
586  5.85  0.  0.
587  5.86  0.  0.
588  5.87  0.  0.
589  5.88  0.  0.
590  5.89  0.  0.
591  5.90  0.  0.
592  5.91  0.  0.
593  5.92  0.  0.
594  5.93  0.  0.
595  5.94  0.  0.
596  5.95  0.  0.
597  5.96  0.  0.
598  5.97  0.  0.
599  5.98  0.  0.
600  5.99  0.  0.
1                         4.8650127723409E+00  3.6645232158984E-01
1  0.0000000000000E+00  8.3214797136355E-09 -6.4643012637200E-08
2  1.0000000000000E-02  1.3632080151770E-03 -4.0914004797510E-03
3  2.0000000000000E-02  5.4388058790544E-03 -1.6268735691329E-02
4  3.0000000000000E-02  1.2184967468213E-02 -3.6243366621075E-02
5  4.0000000000000E-02  2.1532819088743E-02 -6.3540722541418E-02
6  5.0000000000000E-02  3.3387677210850E-02 -9.7509910394705E-02
7  6.0000000000000E-02  4.7630747566987E-02 -1.3733690638622E-01
8  7.0000000000000E-02  6.4121252660239E-02 -1.8206107419599E-01
9  8.0000000000000E-02  8.2698946408169E-02 -2.3059468957600E-01
10  9.0000000000000E-02  1.0318696711759E-01 -2.8174509252532E-01
11  1.0000000000000E-01  1.2539497339290E-01 -3.3423903684865E-01
12  1.1000000000000E-01  1.4912250205198E-01 -3.8674876368017E-01
13  1.2000000000000E-01  1.7416248276652E-01 -4.3791929132495E-01
14  1.3000000000000E-01  2.0030484104334E-01 -4.8639638919362E-01
15  1.4000000000000E-01  2.2734011938081E-01 -5.3085468916037E-01
16  1.5000000000000E-01  2.5506304600718E-01 -5.7002538365131E-01
17  1.6000000000000E-01  2.8327598154494E-01 -6.0272296626221E-01
18  1.7000000000000E-01  3.1179217623393E-01 -6.2787048760948E-01
19  1.8000000000000E-01  3.4043877394305E-01 -6.4452282613615E-01
20  1.9000000000000E-01  3.6905950404237E-01 -6.5188751023660E-01
21  2.0000000000000E-01  3.9751700820230E-01 -6.4934267365790E-01
22  2.1000000000000E-01  4.2569475622523E-01 -6.3645177984108E-01
23  2.2000000000000E-01  4.5349851296299E-01 -6.1297481168627E-01
24  2.3000000000000E-01  4.8085732708368E-01 -5.7887569003096E-01
25  2.4000000000000E-01  5.0772402175725E-01 -5.3432575567220E-01
26  2.5000000000000E-01  5.3407517705609E-01 -4.7970322470299E-01
27  2.6000000000000E-01  5.5991060382834E-01 -4.1558860386266E-01
28  2.7000000000000E-01  5.8525231880907E-01 -3.4275613007229E-01
29  2.8000000000000E-01  6.1014304059483E-01 -2.6216137487575E-01
30  2.9000000000000E-01  6.3464423563192E-01 -1.7492522868356E-01
31  3.0000000000000E-01  6.5883375237355E-01 -8.2314550110153E-02
32  3.1000000000000E-01  6.8280309007041E-01  1.4280169040704E-02
33  3.2000000000000E-01  7.0665435611220E-01  1.1336971370494E-01
34  3.3000000000000E-01  7.3049697228542E-01  2.1339316960223E-01
35  3.4000000000000E-01  7.5444419562822E-01  3.1274655775435E-01
36  3.5000000000000E-01  7.7860952363839E-01  4.0981254236310E-01
37  3.6000000000000E-01  8.0310305633991E-01  5.0299065149660E-01
38  3.7000000000000E-01  8.2802788907918E-01  5.9072743712304E-01
39  3.8000000000000E-01  8.5347660986760E-01  6.7154599893628E-01
40  3.9000000000000E-01  8.7952797360747E-01  7.4407430522963E-01
41  4.0000000000000E-01  9.0624382265209E-01  8.0707176367444E-01
42  4.1000000000000E-01  9.3366631890519E-01  8.5945352493299E-01
43  4.2000000000000E-01  9.6181554713177E-01  9.0031204206060E-01
44  4.3000000000000E-01  9.9068754243089E-01  9.2893545792595E-01
45  4.4000000000000E-01  1.0202527870296E+00  9.4482245051655E-01
46  4.5000000000000E-01  1.0504552128392E+00  9.4769323095260E-01
47  4.6000000000000E-01  1.0812117367296E+00  9.3749646012095E-01
48  4.7000000000000E-01  1.1124123454016E+00  9.1441192575098E-01
49  4.8000000000000E-01  1.1439207362546E+00  8.7884890108072E-01
50  4.9000000000000E-01  1.1755755099625E+00  8.3144018752655E-01
51  5.0000000000000E-01  1.2071918997764E+00  7.7303192545064E-01
52  5.1000000000000E-01  1.2385640120788E+00  7.0466933768094E-01
53  5.2000000000000E-01  1.2694675426225E+00  6.2757864835228E-01
54  5.3000000000000E-01  1.2996629233826E+00  5.4314549342079E-01
55  5.4000000000000E-01  1.3288988462343E+00  4.5289020744562E-01
56  5.5000000000000E-01  1.3569161018933E+00  3.5844043261074E-01
57  5.6000000000000E-01  1.3834516658934E+00  2.6150154928279E-01
58  5.7000000000000E-01  1.4082429579483E+00  1.6382547161639E-01
59  5.8000000000000E-01  1.4310321969695E+00  6.7178385939634E-02
60  5.9000000000000E-01  1.4515707713794E+00 -2.6691966821309E-02
61  6.0000000000000E-01  1.4696235432192E+00 -1.1608885109441E-01
62  6.1000000000000E-01  1.4849730049544E+00 -1.9939832458192E-01
63  6.2000000000000E-01  1.4974232098106E+00 -2.7511965049319E-01
64  6.3000000000000E-01  1.5068033999210E+00 -3.4189375263846E-01
65  6.4000000000000E-01  1.5129712614731E+00 -3.9852916522782E-01
66  6.5000000000000E-01  1.5158157423206E+00 -4.4402497305066E-01
67  6.6000000000000E-01  1.5152593750799E+00 -4.7759029131075E-01
68  6.7000000000000E-01  1.5112600574142E+00 -4.9865989680697E-01
69  6.8000000000000E-01  1.5038122508717E+00 -5.0690569226165E-01
70  6.9000000000000E-01  1.4929475701189E+00 -5.0224376212025E-01
71  7.0000000000000E-01  1.4787347454866E+00 -4.8483685968892E-01
72  7.1000000000000E-01  1.4612789532434E+00 -4.5509225051543E-01
73  7.2000000000000E-01  1.4407205196933E+00 -4.1365492389105E-01
74  7.3000000000000E-01  1.4172330168590E+00 -3.6139627160944E-01
75  7.4000000000000E-01  1.3910207789280E+00 -2.9939841903886E-01
76  7.5000000000000E-01  1.3623158795988E+00 -2.2893447650602E-01
77  7.6000000000000E-01  1.3313746207453E+00 -1.5144505737882E-01
78  7.7000000000000E-01  1.2984735922407E+00 -6.8511481571217E-02
79  7.8000000000000E-01  1.2639053711403E+00  1.8173851927113E-02
80  7.9000000000000E-01  1.2279739355735E+00  1.0683938373154E-01
81  8.0000000000000E-01  1.1909898744790E+00  1.9566801784982E-01
82  8.1000000000000E-01  1.1532654786283E+00  2.8283182888764E-01
83  8.2000000000000E-01  1.1151098011175E+00  3.6652720687736E-01
84  8.3000000000000E-01  1.0768237766207E+00  4.4500978182900E-01
85  8.4000000000000E-01  1.0386954881418E+00  5.1662847028345E-01
86  8.5000000000000E-01  1.0009956677869E+00  5.7985799868130E-01
87  8.6000000000000E-01  9.6397351423281E-01  6.3332928307283E-01
88  8.7000000000000E-01  9.2785290415659E-01  6.7585708118254E-01
89  8.8000000000000E-01  8.9282906799712E-01  7.0646438047945E-01
90  8.9000000000000E-01  8.5906579218165E-01  7.2440304384759E-01
91  9.0000000000000E-01  8.2669320049726E-01  7.2917030166270E-01
92  9.1000000000000E-01  7.9580615680314E-01  7.2052075433957E-01
93  9.2000000000000E-01  7.6646331995073E-01  6.9847363133731E-01
94  9.3000000000000E-01  7.3868686981399E-01  6.6331513969444E-01
95  9.4000000000000E-01  7.1246291095460E-01  6.1559582579473E-01
96  9.5000000000000E-01  6.8774254788703E-01  5.5612296654491E-01
97  9.6000000000000E-01  6.6444361340069E-01  4.8594809875676E-01
98  9.7000000000000E-01  6.4245301917702E-01  4.0634988652802E-01
99  9.8000000000000E-01  6.2162968624136E-01  3.1881261407270E-01
100  9.9000000000000E-01  6.0180800182829E-01  2.2500067416526E-01
101  1.0000000000000E+00  5.8280173923347E-01  1.2672949848771E-01
102  1.0100000000000E+00  5.6440836836026E-01  2.5933444306731E-02
103  1.0200000000000E+00  5.4641367711776E-01 -7.5368789247911E-02
104  1.0300000000000E+00  5.2859661773501E-01 -1.7511059361383E-01
105  1.0400000000000E+00  5.1073428754810E-01 -2.7121507322067E-01
106  1.0500000000000E+00  4.9260695097396E-01 -3.6163317421505E-01
107  1.0600000000000E+00  4.7400300827525E-01 -4.4438162342782E-01
108  1.0700000000000E+00  4.5472381736247E-01 -5.1757998197649E-01
109  1.0800000000000E+00  4.3458827727287E-01 -5.7948613121902E-01
110  1.0900000000000E+00  4.1343708606668E-01 -6.2852953472968E-01
111  1.1000000000000E+00  3.9113659161042E-01 -6.6334165803270E-01
112  1.1100000000000E+00  3.6758216099955E-01 -6.8278297750852E-01
113  1.1200000000000E+00  3.4270100301580E-01 -6.8596606985427E-01
114  1.1300000000000E+00  3.1645438795716E-01 -6.7227434331198E-01
115  1.1400000000000E+00  2.8883922009889E-01 -6.4137604930141E-01
116  1.1500000000000E+00  2.5988892991712E-01 -5.9323329794622E-01
117  1.1600000000000E+00  2.2967366560243E-01 -5.2810589016982E-01
118  1.1700000000000E+00  1.9829977631074E-01 -4.4654987259363E-01
119  1.1800000000000E+00  1.6590859256548E-01 -3.4941081593130E-01
120  1.1900000000000E+00  1.3267452221878E-01 -2.3781191281142E-01
121  1.2000000000000E+00  9.8802492979180E-02 -1.1313708390182E-01
122  1.2100000000000E+00  6.4524784595636E-02  2.2990629044965E-02
123  1.2200000000000E+00  3.0097305110745E-02  1.6873501982406E-01
124  1.2300000000000E+00 -4.2046241333530E-03  3.2207658305423E-01
125  1.2400000000000E+00 -3.8090900860897E-02  4.8084577674065E-01
126  1.2500000000000E+00 -7.1261609966381E-02  6.4275911043799E-01
127  1.2600000000000E+00 -1.0341223939903E-01  8.0545743699170E-01
128  1.2700000000000E+00 -1.3423905115541E-01  9.6654578679945E-01
129  1.2800000000000E+00 -1.6344451169559E-01  1.1236340565765E+00
130  1.2900000000000E+00 -1.9074268480099E-01  1.2743778498067E+00
131  1.3000000000000E+00 -2.1586449036949E-01  1.4165187639308E+00
132  1.3100000000000E+00 -2.3856273485706E-01  1.5479234296457E+00
133  1.3200000000000E+00 -2.5861682297677E-01  1.6666206301490E+00
134  1.3300000000000E+00 -2.7583706581325E-01  1.7708358624892E+00