Sm    ONCVPSP-4.0.1  r_core=   2.00717   1.60864   1.90196   1.60864
62.0000     16.0000      241206    zatom,zion,pspd
8      11   3     4   600     0    pspcod,pspxc,lmax,lloc,mmax,r2well
5.99000000  4.00000000  0.00000000    rchrg fchrg qchrg
2     2     2     2     0    nproj
1     1           extension_switch
0                         8.0281676535831E+00  9.4591540602915E-01
1  0.0000000000000E+00  5.6429139139169E-11 -1.7531315288366E-10
2  1.0000000000000E-02  3.4052751273326E-02 -9.4671358214218E-03
3  2.0000000000000E-02  6.8100118052465E-02 -1.8955234464405E-02
4  3.0000000000000E-02  1.0213654995666E-01 -2.8484820414468E-02
5  4.0000000000000E-02  1.3615616640536E-01 -3.8075545992504E-02
6  5.0000000000000E-02  1.7015259543713E-01 -4.7745766496157E-02
7  6.0000000000000E-02  2.0411881719098E-01 -5.7512128684215E-02
8  7.0000000000000E-02  2.3804701353717E-01 -6.7389176843957E-02
9  8.0000000000000E-02  2.7192842528847E-01 -7.7388980506082E-02
10  9.0000000000000E-02  3.0575321835311E-01 -8.7520787655863E-02
11  1.0000000000000E-01  3.3951036010869E-01 -9.7790707034971E-02
12  1.1000000000000E-01  3.7318750718278E-01 -1.0820142283817E-01
13  1.2000000000000E-01  4.0677090572135E-01 -1.1875194478608E-01
14  1.3000000000000E-01  4.4024530511218E-01 -1.2943739620227E-01
15  1.4000000000000E-01  4.7359388600751E-01 -1.4024884234414E-01
16  1.5000000000000E-01  5.0679820335978E-01 -1.5117316083540E-01
17  1.6000000000000E-01  5.3983814504778E-01 -1.6219295562836E-01
18  1.7000000000000E-01  5.7269190652883E-01 -1.7328651549019E-01
19  1.8000000000000E-01  6.0533598180766E-01 -1.8442781756377E-01
20  1.9000000000000E-01  6.3774517086499E-01 -1.9558657610428E-01
21  2.0000000000000E-01  6.6989260354070E-01 -2.0672833604331E-01
22  2.1000000000000E-01  7.0174977971893E-01 -2.1781461058573E-01
23  2.2000000000000E-01  7.3328662551669E-01 -2.2880306160676E-01
24  2.3000000000000E-01  7.6447156503533E-01 -2.3964772119151E-01
25  2.4000000000000E-01  7.9527160709674E-01 -2.5029925225102E-01
26  2.5000000000000E-01  8.2565244625479E-01 -2.6070524576165E-01
27  2.6000000000000E-01  8.5557857724814E-01 -2.7081055181277E-01
28  2.7000000000000E-01  8.8501342194502E-01 -2.8055764131449E-01
29  2.8000000000000E-01  9.1391946772445E-01 -2.8988699491627E-01
30  2.9000000000000E-01  9.4225841614274E-01 -2.9873751542154E-01
31  3.0000000000000E-01  9.6999134064996E-01 -3.0704695975574E-01
32  3.1000000000000E-01  9.9707885204928E-01 -3.1475238635861E-01
33  3.2000000000000E-01  1.0234812703331E+00 -3.2179061372592E-01
34  3.3000000000000E-01  1.0491588014841E+00 -3.2809868572589E-01
35  3.4000000000000E-01  1.0740717177979E+00 -3.3361433925905E-01
36  3.5000000000000E-01  1.0981805402663E+00 -3.3827646982044E-01
37  3.6000000000000E-01  1.1214462215556E+00 -3.4202559055850E-01
38  3.7000000000000E-01  1.1438303281275E+00 -3.4480428050578E-01
39  3.8000000000000E-01  1.1652952200716E+00 -3.4655761778269E-01
40  3.9000000000000E-01  1.1858042272601E+00 -3.4723359374403E-01
41  4.0000000000000E-01  1.2053218204833E+00 -3.4678350424909E-01
42  4.1000000000000E-01  1.2238137762926E+00 -3.4516231448611E-01
43  4.2000000000000E-01  1.2412473343506E+00 -3.4232899406913E-01
44  4.3000000000000E-01  1.2575913461768E+00 -3.3824681944619E-01
45  4.4000000000000E-01  1.2728164142739E+00 -3.3288364100952E-01
46  4.5000000000000E-01  1.2868950207276E+00 -3.2621211267689E-01
47  4.6000000000000E-01  1.2998016444841E+00 -3.1820988211473E-01
48  4.7000000000000E-01  1.3115128666351E+00 -3.0885974019354E-01
49  4.8000000000000E-01  1.3220074631608E+00 -2.9814972870059E-01
50  4.9000000000000E-01  1.3312664847182E+00 -2.8607320577840E-01
51  5.0000000000000E-01  1.3392733231888E+00 -2.7262886900616E-01
52  5.1000000000000E-01  1.3460137648390E+00 -2.5782073648955E-01
53  5.2000000000000E-01  1.3514760300775E+00 -2.4165808676809E-01
54  5.3000000000000E-01  1.3556507999271E+00 -2.2415535878221E-01
55  5.4000000000000E-01  1.3585312294577E+00 -2.0533201356194E-01
56  5.5000000000000E-01  1.3601129485513E+00 -1.8521235969836E-01
57  5.6000000000000E-01  1.3603940504885E+00 -1.6382534503528E-01
58  5.7000000000000E-01  1.3593750689582E+00 -1.4120431736671E-01
59  5.8000000000000E-01  1.3570589441930E+00 -1.1738675724200E-01
60  5.9000000000000E-01  1.3534509790296E+00 -9.2413986261208E-02
61  6.0000000000000E-01  1.3485587857739E+00 -6.6330854485345E-02
62  6.1000000000000E-01  1.3423922248225E+00 -3.9185410786324E-02
63  6.2000000000000E-01  1.3349633360521E+00 -1.1028560117928E-02
64  6.3000000000000E-01  1.3262862640350E+00  1.8086288200891E-02
65  6.4000000000000E-01  1.3163771781706E+00  4.8103577036169E-02
66  6.5000000000000E-01  1.3052541888430E+00  7.8965958654101E-02
67  6.6000000000000E-01  1.2929372607209E+00  1.1061464846733E-01
68  6.7000000000000E-01  1.2794481243054E+00  1.4298977126175E-01
69  6.8000000000000E-01  1.2648101868103E+00  1.7603069598450E-01
70  6.9000000000000E-01  1.2490484434234E+00  2.0967635535233E-01
71  7.0000000000000E-01  1.2321893899475E+00  2.4386554676223E-01
72  7.1000000000000E-01  1.2142609377586E+00  2.7853721125305E-01
73  7.2000000000000E-01  1.1952923319442E+00  3.1363068757249E-01
74  7.3000000000000E-01  1.1753140734017E+00  3.4908593874704E-01
75  7.4000000000000E-01  1.1543578455807E+00  3.8484374892827E-01
76  7.5000000000000E-01  1.1324564464514E+00  4.2084588869441E-01
77  7.6000000000000E-01  1.1096437261683E+00  4.5703524741481E-01
78  7.7000000000000E-01  1.0859545307846E+00  4.9335593173490E-01
79  7.8000000000000E-01  1.0614246522466E+00  5.2975332970223E-01
80  7.9000000000000E-01  1.0360907847765E+00  5.6617414052782E-01
81  8.0000000000000E-01  1.0099904876232E+00  6.0256637045295E-01
82  8.1000000000000E-01  9.8316215403226E-01  6.3887929566748E-01
83  8.2000000000000E-01  9.5564498616504E-01  6.7506339369208E-01
84  8.3000000000000E-01  9.2747897556909E-01  7.1107024509212E-01
85  8.4000000000000E-01  8.9870488868934E-01  7.4685240782597E-01
86  8.5000000000000E-01  8.6936425679442E-01  7.8236326694269E-01
87  8.6000000000000E-01  8.3949936959045E-01  8.1755686272602E-01
88  8.7000000000000E-01  8.0915327169947E-01  8.5238770073065E-01
89  8.8000000000000E-01  7.7836976109560E-01  8.8681054746539E-01
90  8.9000000000000E-01  7.4719338851932E-01  9.2078021574535E-01
91  9.0000000000000E-01  7.1566945683093E-01  9.5425134395433E-01
92  9.1000000000000E-01  6.8384401921793E-01  9.8717817362880E-01
93  9.2000000000000E-01  6.5176387514022E-01  1.0195143298912E+00
94  9.3000000000000E-01  6.1947656288056E-01  1.0512126093224E+00
95  9.4000000000000E-01  5.8703034756765E-01  1.0822247798685E+00
96  9.5000000000000E-01  5.5447420355486E-01  1.1125013973226E+00
97  9.6000000000000E-01  5.2185779006975E-01  1.1419916428146E+00
98  9.7000000000000E-01  4.8923141909727E-01  1.1706431855695E+00
99  9.8000000000000E-01  4.5664601452383E-01  1.1984020749730E+00
100  9.9000000000000E-01  4.2415306164851E-01  1.2252126656996E+00
101  1.0000000000000E+00  3.9180454626196E-01  1.2510175793271E+00
102  1.0100000000000E+00  3.5965288260169E-01  1.2757577054760E+00
103  1.0200000000000E+00  3.2775082961355E-01  1.2993722450834E+00
104  1.0300000000000E+00  2.9615139508199E-01  1.3217987979482E+00
105  1.0400000000000E+00  2.6490772733542E-01  1.3429734961745E+00
106  1.0500000000000E+00  2.3407299438518E-01  1.3628311845969E+00
107  1.0600000000000E+00  2.0370025051669E-01  1.3813056487024E+00
108  1.0700000000000E+00  1.7384229051695E-01  1.3983298899720E+00
109  1.0800000000000E+00  1.4455149189200E-01  1.4138364479620E+00
110  1.0900000000000E+00  1.1587964559975E-01  1.4277577678281E+00
111  1.1000000000000E+00  8.7877775994934E-02  1.4400266113862E+00
112  1.1100000000000E+00  6.0595950852953E-02  1.4505765091891E+00
113  1.1200000000000E+00  3.4083082504974E-02  1.4593422505080E+00
114  1.1300000000000E+00  8.3867212768792E-03  1.4662604075260E+00
115  1.1400000000000E+00 -1.6447157423618E-02  1.4712698895064E+00
116  1.1500000000000E+00 -4.0374370884668E-02  1.4743125221763E+00
117  1.1600000000000E+00 -6.3352750115357E-02  1.4753336470929E+00
118  1.1700000000000E+00 -8.5342362383148E-02  1.4742827353260E+00
119  1.1800000000000E+00 -1.0630573342630E-01  1.4711140094109E+00
120  1.1900000000000E+00 -1.2620806741802E-01  1.4657870672000E+00
121  1.2000000000000E+00 -1.4501746269059E-01  1.4582675009818E+00
122  1.2100000000000E+00 -1.6270512117892E-01  1.4485275050335E+00
123  1.2200000000000E+00 -1.7924554951298E-01  1.4365464646485E+00
124  1.2300000000000E+00 -1.9461674968046E-01  1.4223115196182E+00
125  1.2400000000000E+00 -2.0880039719308E-01  1.4058180951645E+00
126  1.2500000000000E+00 -2.2178200472413E-01  1.3870703934083E+00
127  1.2600000000000E+00 -2.3355106924063E-01  1.3660818386210E+00
128  1.2700000000000E+00 -2.4410120073046E-01  1.3428754697483E+00
129  1.2800000000000E+00 -2.5343023072350E-01  1.3174842740017E+00
130  1.2900000000000E+00 -2.6154029892402E-01  1.2899514557001E+00
131  1.3000000000000E+00 -2.6843791641113E-01  1.2603306349905E+00
132  1.3100000000000E+00 -2.7413400402040E-01  1.2286859715948E+00
133  1.3200000000000E+00 -2.7864390469450E-01  1.1950922093025E+00
134  1.3300000000000E+00 -2.8198736878170E-01  1.1596346375603E+00
135  1.3400000000000E+00 -2.8418851146517E-01  1.1224089671922E+00
136  1.3500000000000E+00 -2.8527574172272E-01  1.0835211180000E+00
137  1.3600000000000E+00 -2.8528166244467E-01  1.0430869167609E+00
138  1.3700000000000E+00 -2.8424294157242E-01  1.0012317049216E+00
139  1.3800000000000E+00 -2.8220015436187E-01  9.5808985609929E-01
140  1.3900000000000E+00 -2.7919759712047E-01  9.1380420432249E-01
141  1.4000000000000E+00 -2.7528307301275E-01  8.6852538476906E-01
142  1.4100000000000E+00 -2.7050765077413E-01  8.2241108958518E-01
143  1.4200000000000E+00 -2.6492539741295E-01  7.7562524217649E-01
144  1.4300000000000E+00 -2.5859308621550E-01  7.2833709415459E-01
145  1.4400000000000E+00 -2.5156988159373E-01  6.8072024987986E-01
146  1.4500000000000E+00 -2.4391700253044E-01  6.3295162426741E-01
147  1.4600000000000E+00 -2.3569736657697E-01  5.8521034019915E-01
148  1.4700000000000E+00 -2.2697521654376E-01  5.3767657250981E-01
149  1.4800000000000E+00 -2.1781573219134E-01  4.9053034608017E-01
150  1.4900000000000E+00 -2.0828462937744E-01  4.4395029606962E-01
151  1.5000000000000E+00 -1.9844774924172E-01  3.9811239874650E-01
152  1.5100000000000E+00 -1.8837064011367E-01  3.5318868172468E-01
153  1.5200000000000E+00 -1.7811813490867E-01  3.0934592268278E-01
154  1.5300000000000E+00 -1.6775392683116E-01  2.6674434582518E-01
155  1.5400000000000E+00 -1.5734014623278E-01  2.2553632543918E-01
156  1.5500000000000E+00 -1.4693694147471E-01  1.8586510590801E-01
157  1.5600000000000E+00 -1.3660206661922E-01  1.4786354745477E-01
158  1.5700000000000E+00 -1.2639047872342E-01  1.1165290671662E-01
159  1.5800000000000E+00 -1.1635394743069E-01  7.7341660983831E-02
160  1.5900000000000E+00 -1.0654067935199E-01  4.5024384095952E-02
161  1.6000000000000E+00 -9.6994961137531E-02  1.4780689251585E-02
162  1.6100000000000E+00 -8.7756815057655E-02 -1.3325796745426E-02
163  1.6200000000000E+00 -7.8861777547911E-02 -3.9247871981022E-02
164  1.6300000000000E+00 -7.0341214314227E-02 -6.2952583947753E-02
165  1.6400000000000E+00 -6.2222631722756E-02 -8.4419297045049E-02
166  1.6500000000000E+00 -5.4529602378032E-02 -1.0363984277559E-01
167  1.6600000000000E+00 -4.7281705698720E-02 -1.2061864522149E-01
168  1.6700000000000E+00 -4.0494496127551E-02 -1.3537275896241E-01
169  1.6800000000000E+00 -3.4179501511285E-02 -1.4793180675453E-01
170  1.6900000000000E+00 -2.8344252046072E-02 -1.5833781536734E-01
171  1.7000000000000E+00 -2.2992339660147E-02 -1.6664495014444E-01
172  1.7100000000000E+00 -1.8123507547339E-02 -1.7291914921196E-01
173  1.7200000000000E+00 -1.3733769251748E-02 -1.7723765938615E-01
174  1.7300000000000E+00 -9.8155564590161E-03 -1.7968847663557E-01
175  1.7400000000000E+00 -6.3578944098479E-03 -1.8036969474914E-01
176  1.7500000000000E+00 -3.3466035070437E-03 -1.7938876713804E-01
177  1.7600000000000E+00 -7.6452558099442E-04 -1.7686168691409E-01
178  1.7700000000000E+00  1.4082266936788E-03 -1.7291209002236E-01
179  1.7800000000000E+00  3.1940006919847E-03 -1.6767029472078E-01
180  1.7900000000000E+00  4.6173146950551E-03 -1.6127227345512E-01
181  1.8000000000000E+00  5.7045537939620E-03 -1.5385857728218E-01
182  1.8100000000000E+00  6.4836518483284E-03 -1.4557321460047E-01
183  1.8200000000000E+00  6.9837626479348E-03 -1.3656249538000E-01
184  1.8300000000000E+00  7.2349231246270E-03 -1.2697385061711E-01
185  1.8400000000000E+00  7.2677114558106E-03 -1.1695463663185E-01
186  1.8500000000000E+00  7.1129030438835E-03 -1.0665093439909E-01
187  1.8600000000000E+00  6.8011273603079E-03 -9.6206354094498E-02
188  1.8700000000000E+00  6.3625294954450E-03 -8.5760857351673E-02
189  1.8800000000000E+00  5.8264325982862E-03 -7.5449589067095E-02
190  1.8900000000000E+00  5.2210265840533E-03 -6.5401789143777E-02
191  1.9000000000000E+00  4.5730540539897E-03 -5.5739707263713E-02
192  1.9100000000000E+00  3.9072040284820E-03 -4.6576750904578E-02
193  1.9200000000000E+00  3.2443554732782E-03 -3.8012454201693E-02
194  1.9300000000000E+00  2.6049673162339E-03 -3.0141447219060E-02
195  1.9400000000000E+00  2.0084421723338E-03 -2.3051669337529E-02
196  1.9500000000000E+00  1.4710573461587E-03 -1.6818674385250E-02
197  1.9600000000000E+00  1.0060985528496E-03 -1.1505826391832E-02
198  1.9700000000000E+00  6.2366038486385E-04 -7.1636396467787E-03
199  1.9800000000000E+00  3.3063416554151E-04 -3.8307383765501E-03
200  1.9900000000000E+00  1.2922615894726E-04 -1.5163439675193E-03
201  2.0000000000000E+00  2.4630235017880E-05 -2.9436566119513E-04
202  2.0100000000000E+00 -2.6198905958796E-06  3.1708319119846E-05
203  2.0200000000000E+00  2.4185928093918E-07 -2.8989050064147E-06
204  2.03  0. -0.
205  2.04 -0.  0.
206  2.05 -0.  0.
207  2.06  0.  0.
208  2.07  0.  0.
209  2.08  0.  0.
210  2.09  0.  0.
211  2.10  0.  0.
212  2.11  0.  0.
213  2.12  0.  0.
214  2.13  0.  0.
215  2.14  0.  0.
216  2.15  0.  0.
217  2.16  0.  0.
218  2.17  0.  0.
219  2.18  0.  0.
220  2.19  0.  0.
221  2.20  0.  0.
222  2.21  0.  0.
223  2.22  0.  0.
224  2.23  0.  0.
225  2.24  0.  0.
226  2.25  0.  0.
227  2.26  0.  0.
228  2.27  0.  0.
229  2.28  0.  0.
230  2.29  0.  0.
231  2.30  0.  0.
232  2.31  0.  0.
233  2.32  0.  0.
234  2.33  0.  0.
235  2.34  0.  0.
236  2.35  0.  0.
237  2.36  0.  0.
238  2.37  0.  0.
239  2.38  0.  0.
240  2.39  0.  0.
241  2.40  0.  0.
242  2.41  0.  0.
243  2.42  0.  0.
244  2.43  0.  0.
245  2.44  0.  0.
246  2.45  0.  0.
247  2.46  0.  0.
248  2.47  0.  0.
249  2.48  0.  0.
250  2.49  0.  0.
251  2.50  0.  0.
252  2.51  0.  0.
253  2.52  0.  0.
254  2.53  0.  0.
255  2.54  0.  0.
256  2.55  0.  0.
257  2.56  0.  0.
258  2.57  0.  0.
259  2.58  0.  0.
260  2.59  0.  0.
261  2.60  0.  0.
262  2.61  0.  0.
263  2.62  0.  0.
264  2.63  0.  0.
265  2.64  0.  0.
266  2.65  0.  0.
267  2.66  0.  0.
268  2.67  0.  0.
269  2.68  0.  0.
270  2.69  0.  0.
271  2.70  0.  0.
272  2.71  0.  0.
273  2.72  0.  0.
274  2.73  0.  0.
275  2.74  0.  0.
276  2.75  0.  0.
277  2.76  0.  0.
278  2.77  0.  0.
279  2.78  0.  0.
280  2.79  0.  0.
281  2.80  0.  0.
282  2.81  0.  0.
283  2.82  0.  0.
284  2.83  0.  0.
285  2.84  0.  0.
286  2.85  0.  0.
287  2.86  0.  0.
288  2.87  0.  0.
289  2.88  0.  0.
290  2.89  0.  0.
291  2.90  0.  0.
292  2.91  0.  0.
293  2.92  0.  0.
294  2.93  0.  0.
295  2.94  0.  0.
296  2.95  0.  0.
297  2.96  0.  0.
298  2.97  0.  0.
299  2.98  0.  0.
300  2.99  0.  0.
301  3.00  0.  0.
302  3.01  0.  0.
303  3.02  0.  0.
304  3.03  0.  0.
305  3.04  0.  0.
306  3.05  0.  0.
307  3.06  0.  0.
308  3.07  0.  0.
309  3.08  0.  0.
310  3.09  0.  0.
311  3.10  0.  0.
312  3.11  0.  0.
313  3.12  0.  0.
314  3.13  0.  0.
315  3.14  0.  0.
316  3.15  0.  0.
317  3.16  0.  0.
318  3.17  0.  0.
319  3.18  0.  0.
320  3.19  0.  0.
321  3.20  0.  0.
322  3.21  0.  0.
323  3.22  0.  0.
324  3.23  0.  0.
325  3.24  0.  0.
326  3.25  0.  0.
327  3.26  0.  0.
328  3.27  0.  0.
329  3.28  0.  0.
330  3.29  0.  0.
331  3.30  0.  0.
332  3.31  0.  0.
333  3.32  0.  0.
334  3.33  0.  0.
335  3.34  0.  0.
336  3.35  0.  0.
337  3.36  0.  0.
338  3.37  0.  0.
339  3.38  0.  0.
340  3.39  0.  0.
341  3.40  0.  0.
342  3.41  0.  0.
343  3.42  0.  0.
344  3.43  0.  0.
345  3.44  0.  0.
346  3.45  0.  0.
347  3.46  0.  0.
348  3.47  0.  0.
349  3.48  0.  0.
350  3.49  0.  0.
351  3.50  0.  0.
352  3.51  0.  0.
353  3.52  0.  0.
354  3.53  0.  0.
355  3.54  0.  0.
356  3.55  0.  0.
357  3.56  0.  0.
358  3.57  0.  0.
359  3.58  0.  0.
360  3.59  0.  0.
361  3.60  0.  0.
362  3.61  0.  0.
363  3.62  0.  0.
364  3.63  0.  0.
365  3.64  0.  0.
366  3.65  0.  0.
367  3.66  0.  0.
368  3.67  0.  0.
369  3.68  0.  0.
370  3.69  0.  0.
371  3.70  0.  0.
372  3.71  0.  0.
373  3.72  0.  0.
374  3.73  0.  0.
375  3.74  0.  0.
376  3.75  0.  0.
377  3.76  0.  0.
378  3.77  0.  0.
379  3.78  0.  0.
380  3.79  0.  0.
381  3.80  0.  0.
382  3.81  0.  0.
383  3.82  0.  0.
384  3.83  0.  0.
385  3.84  0.  0.
386  3.85  0.  0.
387  3.86  0.  0.
388  3.87  0.  0.
389  3.88  0.  0.
390  3.89  0.  0.
391  3.90  0.  0.
392  3.91  0.  0.
393  3.92  0.  0.
394  3.93  0.  0.
395  3.94  0.  0.
396  3.95  0.  0.
397  3.96  0.  0.
398  3.97  0.  0.
399  3.98  0.  0.
400  3.99  0.  0.
401  4.00  0.  0.
402  4.01  0.  0.
403  4.02  0.  0.
404  4.03  0.  0.
405  4.04  0.  0.
406  4.05  0.  0.
407  4.06  0.  0.
408  4.07  0.  0.
409  4.08  0.  0.
410  4.09  0.  0.
411  4.10  0.  0.
412  4.11  0.  0.
413  4.12  0.  0.
414  4.13  0.  0.
415  4.14  0.  0.
416  4.15  0.  0.
417  4.16  0.  0.
418  4.17  0.  0.
419  4.18  0.  0.
420  4.19  0.  0.
421  4.20  0.  0.
422  4.21  0.  0.
423  4.22  0.  0.
424  4.23  0.  0.
425  4.24  0.  0.
426  4.25  0.  0.
427  4.26  0.  0.
428  4.27  0.  0.
429  4.28  0.  0.
430  4.29  0.  0.
431  4.30  0.  0.
432  4.31  0.  0.
433  4.32  0.  0.
434  4.33  0.  0.
435  4.34  0.  0.
436  4.35  0.  0.
437  4.36  0.  0.
438  4.37  0.  0.
439  4.38  0.  0.
440  4.39  0.  0.
441  4.40  0.  0.
442  4.41  0.  0.
443  4.42  0.  0.
444  4.43  0.  0.
445  4.44  0.  0.
446  4.45  0.  0.
447  4.46  0.  0.
448  4.47  0.  0.
449  4.48  0.  0.
450  4.49  0.  0.
451  4.50  0.  0.
452  4.51  0.  0.
453  4.52  0.  0.
454  4.53  0.  0.
455  4.54  0.  0.
456  4.55  0.  0.
457  4.56  0.  0.
458  4.57  0.  0.
459  4.58  0.  0.
460  4.59  0.  0.
461  4.60  0.  0.
462  4.61  0.  0.
463  4.62  0.  0.
464  4.63  0.  0.
465  4.64  0.  0.
466  4.65  0.  0.
467  4.66  0.  0.
468  4.67  0.  0.
469  4.68  0.  0.
470  4.69  0.  0.
471  4.70  0.  0.
472  4.71  0.  0.
473  4.72  0.  0.
474  4.73  0.  0.
475  4.74  0.  0.
476  4.75  0.  0.
477  4.76  0.  0.
478  4.77  0.  0.
479  4.78  0.  0.
480  4.79  0.  0.
481  4.80  0.  0.
482  4.81  0.  0.
483  4.82  0.  0.
484  4.83  0.  0.
485  4.84  0.  0.
486  4.85  0.  0.
487  4.86  0.  0.
488  4.87  0.  0.
489  4.88  0.  0.
490  4.89  0.  0.
491  4.90  0.  0.
492  4.91  0.  0.
493  4.92  0.  0.
494  4.93  0.  0.
495  4.94  0.  0.
496  4.95  0.  0.
497  4.96  0.  0.
498  4.97  0.  0.
499  4.98  0.  0.
500  4.99  0.  0.
501  5.00  0.  0.
502  5.01  0.  0.
503  5.02  0.  0.
504  5.03  0.  0.
505  5.04  0.  0.
506  5.05  0.  0.
507  5.06  0.  0.
508  5.07  0.  0.
509  5.08  0.  0.
510  5.09  0.  0.
511  5.10  0.  0.
512  5.11  0.  0.
513  5.12  0.  0.
514  5.13  0.  0.
515  5.14  0.  0.
516  5.15  0.  0.
517  5.16  0.  0.
518  5.17  0.  0.
519  5.18  0.  0.
520  5.19  0.  0.
521  5.20  0.  0.
522  5.21  0.  0.
523  5.22  0.  0.
524  5.23  0.  0.
525  5.24  0.  0.
526  5.25  0.  0.
527  5.26  0.  0.
528  5.27  0.  0.
529  5.28  0.  0.
530  5.29  0.  0.
531  5.30  0.  0.
532  5.31  0.  0.
533  5.32  0.  0.
534  5.33  0.  0.
535  5.34  0.  0.
536  5.35  0.  0.
537  5.36  0.  0.
538  5.37  0.  0.
539  5.38  0.  0.
540  5.39  0.  0.
541  5.40  0.  0.
542  5.41  0.  0.
543  5.42  0.  0.
544  5.43  0.  0.
545  5.44  0.  0.
546  5.45  0.  0.
547  5.46  0.  0.
548  5.47  0.  0.
549  5.48  0.  0.
550  5.49  0.  0.
551  5.50  0.  0.
552  5.51  0.  0.
553  5.52  0.  0.
554  5.53  0.  0.
555  5.54  0.  0.
556  5.55  0.  0.
557  5.56  0.  0.
558  5.57  0.  0.
559  5.58  0.  0.
560  5.59  0.  0.
561  5.60  0.  0.
562  5.61  0.  0.
563  5.62  0.  0.
564  5.63  0.  0.
565  5.64  0.  0.
566  5.65  0.  0.
567  5.66  0.  0.
568  5.67  0.  0.
569  5.68  0.  0.
570  5.69  0.  0.
571  5.70  0.  0.
572  5.71  0.  0.
573  5.72  0.  0.
574  5.73  0.  0.
575  5.74  0.  0.
576  5.75  0.  0.
577  5.76  0.  0.
578  5.77  0.  0.
579  5.78  0.  0.
580  5.79  0.  0.
581  5.80  0.  0.
582  5.81  0.  0.
583  5.82  0.  0.
584  5.83  0.  0.
585  5.84  0.  0.
586  5.85  0.  0.
587  5.86  0.  0.
588  5.87  0.  0.
589  5.88  0.  0.
590  5.89  0.  0.
591  5.90  0.  0.
592  5.91  0.  0.
593  5.92  0.  0.
594  5.93  0.  0.
595  5.94  0.  0.
596  5.95  0.  0.
597  5.96  0.  0.
598  5.97  0.  0.
599  5.98  0.  0.
600  5.99  0.  0.
1                         5.9686340129418E+00  4.9444795985230E-01
1  0.0000000000000E+00  8.1181736333313E-09 -4.1702532121990E-08
2  1.0000000000000E-02  1.2125735254285E-03 -2.9491187888401E-03
3  2.0000000000000E-02  4.8371264652863E-03 -1.1733420776714E-02
4  3.0000000000000E-02  1.0834400933772E-02 -2.6165005226674E-02
5  4.0000000000000E-02  1.9139779092670E-02 -4.5934887755634E-02
6  5.0000000000000E-02  2.9664484492719E-02 -7.0619190370196E-02
7  6.0000000000000E-02  4.2297231047381E-02 -9.9687638718184E-02
8  7.0000000000000E-02  5.6906287492582E-02 -1.3251420161097E-01
9  8.0000000000000E-02  7.3341917067877E-02 -1.6838966616913E-01
10  9.0000000000000E-02  9.1439144808311E-02 -2.0653590416919E-01
11  1.0000000000000E-01  1.1102079840384E-01 -2.4612155204366E-01
12  1.1000000000000E-01  1.3190076318828E-01 -2.8627879914279E-01
13  1.2000000000000E-01  1.5388738756737E-01 -3.2612095683981E-01
14  1.3000000000000E-01  1.7678697216845E-01 -3.6476046527637E-01
15  1.4000000000000E-01  2.0040727425237E-01 -4.0132698531116E-01
16  1.5000000000000E-01  2.2456095850736E-01 -4.3498522073585E-01
17  1.6000000000000E-01  2.4906892625492E-01 -4.6495212011956E-01
18  1.7000000000000E-01  2.7376345732491E-01 -4.9051311866442E-01
19  1.8000000000000E-01  2.9849110236097E-01 -5.1103709800623E-01
20  1.9000000000000E-01  3.2311526803433E-01 -5.2598976565603E-01
21  2.0000000000000E-01  3.4751844348657E-01 -5.3494518531253E-01
22  2.1000000000000E-01  3.7160402318134E-01 -5.3759522403765E-01
23  2.2000000000000E-01  3.9529768909300E-01 -5.3375672162835E-01
24  2.3000000000000E-01  4.1854832365076E-01 -5.2337623070739E-01
25  2.4000000000000E-01  4.4132843393099E-01 -5.0653222228225E-01
26  2.5000000000000E-01  4.6363407707494E-01 -4.8343469991938E-01
27  2.6000000000000E-01  4.8548428662576E-01 -4.5442221533977E-01
28  2.7000000000000E-01  5.0692000924108E-01 -4.1995632822369E-01
29  2.8000000000000E-01  5.2800257086074E-01 -3.8061360237257E-01
30  2.9000000000000E-01  5.4881170070715E-01 -3.3707527817709E-01
31  3.0000000000000E-01  5.6944315029126E-01 -2.9011480667216E-01
32  3.1000000000000E-01  5.9000595271914E-01 -2.4058347245561E-01
33  3.2000000000000E-01  6.1061937488452E-01 -1.8939437059890E-01
34  3.3000000000000E-01  6.3140962144944E-01 -1.3750503565646E-01
35  3.4000000000000E-01  6.5250635473290E-01 -8.5899048338480E-02
36  3.5000000000000E-01  6.7403909864079E-01 -3.5566966812918E-02
37  3.6000000000000E-01  6.9613359749874E-01  1.2513055487176E-02
38  3.7000000000000E-01  7.1890820203262E-01  5.7394595561408E-02
39  3.8000000000000E-01  7.4247035474694E-01  9.8181858923061E-02
40  3.9000000000000E-01  7.6691324557255E-01  1.3404778484236E-01
41  4.0000000000000E-01  7.9231270590939E-01  1.6425100638474E-01
42  4.1000000000000E-01  8.1872440512316E-01  1.8815133247365E-01
43  4.2000000000000E-01  8.4618140823713E-01  2.0522344520864E-01
44  4.3000000000000E-01  8.7469214708408E-01  2.1506853761558E-01
45  4.4000000000000E-01  9.0423884966708E-01  2.1742365432335E-01
46  4.5000000000000E-01  9.3477646405633E-01  2.1216853967303E-01
47  4.6000000000000E-01  9.6623210397765E-01  1.9932984370433E-01
48  4.7000000000000E-01  9.9850503349589E-01  1.7908258548361E-01
49  4.8000000000000E-01  1.0314671980445E+00  1.5174882443192E-01
50  4.9000000000000E-01  1.0649642986903E+00  1.1779354272811E-01
51  5.0000000000000E-01  1.0988173961466E+00  7.7817794521012E-02
52  5.1000000000000E-01  1.1328250208495E+00  3.2549229598164E-02
53  5.2000000000000E-01  1.1667657555955E+00 -1.7169850654383E-02
54  5.3000000000000E-01  1.2004012479756E+00 -7.0396699656577E-02
55  5.4000000000000E-01  1.2334796013305E+00 -1.2610434513443E-01
56  5.5000000000000E-01  1.2657390853350E+00 -1.8319953295026E-01
57  5.6000000000000E-01  1.2969121007754E+00 -2.4054207219664E-01
58  5.7000000000000E-01  1.3267293277076E+00 -2.9696523005199E-01
59  5.8000000000000E-01  1.3549239821227E+00 -3.5129680289316E-01
60  5.9000000000000E-01  1.3812361035502E+00 -4.0238047503727E-01
61  6.0000000000000E-01  1.4054167947833E+00 -4.4909706856460E-01
62  6.1000000000000E-01  1.4272323351369E+00 -4.9038528714409E-01
63  6.2000000000000E-01  1.4464680903496E+00 -5.2526156369402E-01
64  6.3000000000000E-01  1.4629321454053E+00 -5.5283863597616E-01
65  6.4000000000000E-01  1.4764585911176E+00 -5.7234249561348E-01
66  6.5000000000000E-01  1.4869104012182E+00 -5.8312738418179E-01
67  6.6000000000000E-01  1.4941818438200E+00 -5.8468854446268E-01
68  6.7000000000000E-01  1.4982003793556E+00 -5.7667247504982E-01
69  6.8000000000000E-01  1.4989280062783E+00 -5.5888448155665E-01
70  6.9000000000000E-01  1.4963620257897E+00 -5.3129336685997E-01
71  7.0000000000000E-01  1.4905352074409E+00 -4.9403315524147E-01
72  7.1000000000000E-01  1.4815153484514E+00 -4.4740179998493E-01
73  7.2000000000000E-01  1.4694042307960E+00 -3.9185687995260E-01
74  7.3000000000000E-01  1.4543359913167E+00 -3.2800834684591E-01
75  7.4000000000000E-01  1.4364749311133E+00 -2.5660844021726E-01
76  7.5000000000000E-01  1.4160128010474E+00 -1.7853894079115E-01
77  7.6000000000000E-01  1.3931656101531E+00 -9.4795983266063E-02
78  7.7000000000000E-01  1.3681700129035E+00 -6.4726965444406E-03
79  7.8000000000000E-01  1.3412793394451E+00  8.5260018626385E-02
80  7.9000000000000E-01  1.3127593399326E+00  1.7917422813236E-01
81  8.0000000000000E-01  1.2828837198334E+00  2.7400684239577E-01
82  8.1000000000000E-01  1.2519295474030E+00  3.6848223365054E-01
83  8.2000000000000E-01  1.2201726173769E+00  4.6133517651503E-01
84  8.3000000000000E-01  1.1878828562119E+00  5.5133368744836E-01
85  8.4000000000000E-01  1.1553198539102E+00  6.3730133821457E-01
86  8.5000000000000E-01  1.1227286055640E+00  7.1813862594909E-01
87  8.6000000000000E-01  1.0903355422975E+00  7.9284299773001E-01
88  8.7000000000000E-01  1.0583449263041E+00  8.6052715045850E-01
89  8.8000000000000E-01  1.0269356782711E+00  9.2043525696290E-01
90  8.9000000000000E-01  9.9625869775428E-01  9.7195680603985E-01
91  9.0000000000000E-01  9.6643472815430E-01  1.0146377869770E+00
92  9.1000000000000E-01  9.3755280801030E-01  1.0481889972070E+00
93  9.2000000000000E-01  9.0966933954229E-01  1.0724913042427E+00
94  9.3000000000000E-01  8.8280779394479E-01  1.0875977489863E+00
95  9.4000000000000E-01  8.5695906106182E-01  1.0937324358733E+00
96  9.5000000000000E-01  8.3208243898441E-01  1.0912862150048E+00
97  9.6000000000000E-01  8.0810724702576E-01  1.0808092213612E+00
98  9.7000000000000E-01  7.8493503367541E-01  1.0630003952359E+00
99  9.8000000000000E-01  7.6244233973716E-01  1.0386941650703E+00
100  9.9000000000000E-01  7.4048396612463E-01  1.0088445278687E+00
101  1.0000000000000E+00  7.1889668593986E-01  9.7450681224777E-01
102  1.0100000000000E+00  6.9750333167632E-01  9.3681745401141E-01
103  1.0200000000000E+00  6.7611718084119E-01  8.9697215306880E-01
104  1.0300000000000E+00  6.5454655713237E-01  8.5620281277179E-01
105  1.0400000000000E+00  6.3259955966150E-01  8.1575368767701E-01
106  1.0500000000000E+00  6.1008882967442E-01  7.7685718288096E-01
107  1.0600000000000E+00  5.8683626286050E-01  7.4070975702269E-01
108  1.0700000000000E+00  5.6267757569251E-01  7.0844838162482E-01
109  1.0800000000000E+00  5.3746663630842E-01  6.8112800157196E-01
110  1.0900000000000E+00  5.1107947420765E-01  6.5970042531344E-01
111  1.1000000000000E+00  4.8341788841823E-01  6.4499504912505E-01
112  1.1100000000000E+00  4.5441258073839E-01  6.3770178775096E-01
113  1.1200000000000E+00  4.2402574898677E-01  6.3835654480169E-01
114  1.1300000000000E+00  3.9225308486099E-01  6.4732951064738E-01
115  1.1400000000000E+00  3.5912513169561E-01  6.6481652468176E-01
116  1.1500000000000E+00  3.2470796911193E-01  6.9083368282307E-01
117  1.1600000000000E+00  2.8910320384246E-01  7.2521531198618E-01
118  1.1700000000000E+00  2.5244725889965E-01  7.6761537097448E-01
119  1.1800000000000E+00  2.1490996626728E-01  8.1751227409642E-01
120  1.1900000000000E+00  1.7669248140594E-01  8.7421706990080E-01
121  1.2000000000000E+00  1.3802455065697E-01  9.3688484481399E-01
122  1.2100000000000E+00  9.9161174973867E-02  1.0045291607809E+00
123  1.2200000000000E+00  6.0378725058068E-02  1.0760392784750E+00
124  1.2300000000000E+00  2.1970573619460E-02  1.1501998647741E+00
125  1.2400000000000E+00 -1.5757679913055E-02  1.2257128351503E+00
126  1.2500000000000E+00 -5.2493308715830E-02  1.3012209402832E+00
127  1.2600000000000E+00 -8.7921791654816E-02  1.3753326716347E+00
128  1.2700000000000E+00 -1.2173228471821E-01  1.4466480338914E+00
129  1.2800000000000E+00 -1.5362313198994E-01  1.5137847136966E+00
130  1.2900000000000E+00 -1.8330731572918E-01  1.5754041641008E+00
131  1.3000000000000E+00 -2.1051774534563E-01  1.6302371230853E+00
132  1.3100000000000E+00 -2.3501228711799E-01  1.6771080923136E+00
133  1.3200000000000E+00 -2.5657844036110E-01  1.7149583187865E+00
134  1.3300000000000E+00 -2.7503757138362E-01  1.7428668472333E+00