Sm    ONCVPSP-4.0.1  r_core=   2.00717   1.60864   1.90196   1.75966
62.0000     16.0000      230302    zatom,zion,pspd
8      11   3     4   600     0    pspcod,pspxc,lmax,lloc,mmax,r2well
5.99000000  4.00000000  0.00000000    rchrg fchrg qchrg
2     2     2     2     0    nproj
1     1           extension_switch
0                         6.9387970445675E+00  4.7277438688782E-01
1  0.0000000000000E+00  7.5437767144138E-11 -3.3738344062950E-10
2  1.0000000000000E-02  3.9600421968809E-02 -4.5090086480509E-03
3  2.0000000000000E-02  7.9182804244966E-02 -9.0598268446305E-03
4  3.0000000000000E-02  1.1872893428909E-01 -1.3693535497984E-02
5  4.0000000000000E-02  1.5822025587384E-01 -1.8449766491575E-02
6  5.0000000000000E-02  1.9763770223435E-01 -2.3365998724653E-02
7  6.0000000000000E-02  2.3696153515809E-01 -2.8476878575050E-02
8  7.0000000000000E-02  2.7617119190464E-01 -3.3813572525333E-02
9  8.0000000000000E-02  3.1524514177058E-01 -3.9403159356050E-02
10  9.0000000000000E-02  3.5416075402151E-01 -4.5268068894421E-02
11  1.0000000000000E-01  3.9289417880380E-01 -5.1425573817668E-02
12  1.1000000000000E-01  4.3142024252345E-01 -5.7887340452078E-02
13  1.2000000000000E-01  4.6971235903963E-01 -6.4659043887386E-02
14  1.3000000000000E-01  5.0774245786801E-01 -7.1740052047720E-02
15  1.4000000000000E-01  5.4548093042420E-01 -7.9123182631459E-02
16  1.5000000000000E-01  5.8289659516348E-01 -8.6794536060738E-02
17  1.6000000000000E-01  6.1995668228958E-01 -9.4733406774695E-02
18  1.7000000000000E-01  6.5662683851596E-01 -1.0291227436673E-01
19  1.8000000000000E-01  6.9287115216800E-01 -1.1129687521398E-01
20  1.9000000000000E-01  7.2865219871686E-01 -1.1984635438521E-01
21  2.0000000000000E-01  7.6393110663707E-01 -1.2851349675063E-01
22  2.1000000000000E-01  7.9866764328105E-01 -1.3724503536170E-01
23  2.2000000000000E-01  8.3282032026873E-01 -1.4598203433111E-01
24  2.3000000000000E-01  8.6634651769851E-01 -1.5466034262996E-01
25  2.4000000000000E-01  8.9920262630144E-01 -1.6321111443964E-01
26  2.5000000000000E-01  9.3134420648286E-01 -1.7156139095951E-01
27  2.6000000000000E-01  9.6272616302928E-01 -1.7963473788343E-01
28  2.7000000000000E-01  9.9330293410167E-01 -1.8735193212804E-01
29  2.8000000000000E-01  1.0230286929939E+00 -1.9463169082946E-01
30  2.9000000000000E-01  1.0518575610059E+00 -2.0139143512824E-01
31  3.0000000000000E-01  1.0797438296680E+00 -2.0754808084180E-01
32  3.1000000000000E-01  1.1066421904567E+00 -2.1301884778273E-01
33  3.2000000000000E-01  1.1325079700608E+00 -2.1772207922505E-01
34  3.3000000000000E-01  1.1572973691998E+00 -2.2157806285133E-01
35  3.4000000000000E-01  1.1809677029502E+00 -2.2450984443462E-01
36  3.5000000000000E-01  1.2034776405161E+00 -2.2644402552039E-01
37  3.6000000000000E-01  1.2247874423753E+00 -2.2731153647720E-01
38  3.7000000000000E-01  1.2448591927491E+00 -2.2704837647906E-01
39  3.8000000000000E-01  1.2636570253813E+00 -2.2559631226637E-01
40  3.9000000000000E-01  1.2811473406649E+00 -2.2290352790353E-01
41  4.0000000000000E-01  1.2972990122297E+00 -2.1892521820644E-01
42  4.1000000000000E-01  1.3120835811960E+00 -2.1362411904881E-01
43  4.2000000000000E-01  1.3254754364073E+00 -2.0697096836600E-01
44  4.3000000000000E-01  1.3374519790800E+00 -1.9894489235476E-01
45  4.4000000000000E-01  1.3479937704469E+00 -1.8953371210915E-01
46  4.5000000000000E-01  1.3570846611239E+00 -1.7873416673074E-01
47  4.6000000000000E-01  1.3647119010949E+00 -1.6655204979561E-01
48  4.7000000000000E-01  1.3708662293823E+00 -1.5300225694574E-01
49  4.8000000000000E-01  1.3755419426563E+00 -1.3810874328563E-01
50  4.9000000000000E-01  1.3787369422245E+00 -1.2190439020172E-01
51  5.0000000000000E-01  1.3804527590384E+00 -1.0443078216764E-01
52  5.1000000000000E-01  1.3806945565527E+00 -8.5737895047771E-02
53  5.2000000000000E-01  1.3794711114689E+00 -6.5883698351355E-02
54  5.3000000000000E-01  1.3767947725961E+00 -4.4933674811481E-02
55  5.4000000000000E-01  1.3726813982532E+00 -2.2960261557994E-02
56  5.5000000000000E-01  1.3671502728296E+00 -4.2218010025703E-05
57  5.6000000000000E-01  1.3602240033021E+00  2.3736073575297E-02
58  5.7000000000000E-01  1.3519283966822E+00  4.8285368206532E-02
59  5.8000000000000E-01  1.3422923195301E+00  7.3512371530886E-02
60  5.9000000000000E-01  1.3313475408269E+00  9.9320598473007E-02
61  6.0000000000000E-01  1.3191285596312E+00  1.2561126859426E-01
62  6.1000000000000E-01  1.3056724190755E+00  1.5228422916967E-01
63  6.2000000000000E-01  1.2910185083619E+00  1.7923889661194E-01
64  6.3000000000000E-01  1.2752083545095E+00  2.0637520659869E-01
65  6.4000000000000E-01  1.2582854056796E+00  2.3359456308332E-01
66  6.5000000000000E-01  1.2402948079599E+00  2.6080077629469E-01
67  6.6000000000000E-01  1.2212831775242E+00  2.8790097985707E-01
68  6.7000000000000E-01  1.2012983701022E+00  3.1480651728985E-01
69  6.8000000000000E-01  1.1803892496918E+00  3.4143378837635E-01
70  6.9000000000000E-01  1.1586054584251E+00  3.6770504621945E-01
71  7.0000000000000E-01  1.1359971894590E+00  3.9354913622807E-01
72  7.1000000000000E-01  1.1126149647065E+00  4.1890216879473E-01
73  7.2000000000000E-01  1.0885094191462E+00  4.4370811803193E-01
74  7.3000000000000E-01  1.0637310933595E+00  4.6791933962023E-01
75  7.4000000000000E-01  1.0383302358378E+00  4.9149700158401E-01
76  7.5000000000000E-01  1.0123566164813E+00  5.1441142263901E-01
77  7.6000000000000E-01  9.8585935258014E-01  5.3664231364362E-01
78  7.7000000000000E-01  9.5888674842483E-01  5.5817891862304E-01
79  7.8000000000000E-01  9.3148614953964E-01  5.7902005281254E-01
80  7.9000000000000E-01  9.0370381237480E-01  5.9917403617334E-01
81  8.0000000000000E-01  8.7558479012686E-01  6.1865852186113E-01
82  8.1000000000000E-01  8.4717283518806E-01  6.3750022016279E-01
83  8.2000000000000E-01  8.1851031855497E-01  6.5573451945194E-01
84  8.3000000000000E-01  7.8963816635610E-01  6.7340500673408E-01
85  8.4000000000000E-01  7.6059581348946E-01  6.9056289135285E-01
86  8.5000000000000E-01  7.3142117419614E-01  7.0726633639421E-01
87  8.6000000000000E-01  7.0215062923675E-01  7.2357970324987E-01
88  8.7000000000000E-01  6.7281902918483E-01  7.3957271567354E-01
89  8.8000000000000E-01  6.4345971320778E-01  7.5531955047579E-01
90  8.9000000000000E-01  6.1410454257153E-01  7.7089786274829E-01
91  9.0000000000000E-01  5.8478394798269E-01  7.8638775417831E-01
92  9.1000000000000E-01  5.5552698977037E-01  8.0187069360425E-01
93  9.2000000000000E-01  5.2636142981250E-01  8.1742839946754E-01
94  9.3000000000000E-01  4.9731381402639E-01  8.3314169423288E-01
95  9.4000000000000E-01  4.6840956417262E-01  8.4908934117181E-01
96  9.5000000000000E-01  4.3967307766497E-01  8.6534687413740E-01
97  9.6000000000000E-01  4.1112783403594E-01  8.8198543109460E-01
98  9.7000000000000E-01  3.8279650667869E-01  8.9907060221801E-01
99  9.8000000000000E-01  3.5470107847069E-01  9.1666130332220E-01
100  9.9000000000000E-01  3.2686295988108E-01  9.3480868525934E-01
101  1.0000000000000E+00  2.9930310817276E-01  9.5355508970234E-01
102  1.0100000000000E+00  2.7204214632988E-01  9.7293306143819E-01
103  1.0200000000000E+00  2.4510048037047E-01  9.9296442693049E-01
104  1.0300000000000E+00  2.1849841374197E-01  1.0136594484772E+00
105  1.0400000000000E+00  1.9225625754181E-01  1.0350160627999E+00
106  1.0500000000000E+00  1.6639443535583E-01  1.0570192123580E+00
107  1.0600000000000E+00  1.4093358156154E-01  1.0796402770973E+00
108  1.0700000000000E+00  1.1589463200031E-01  1.1028366137215E+00
109  1.0800000000000E+00  9.1298905981171E-02  1.1265512089280E+00
110  1.0900000000000E+00  6.7168178636453E-02  1.1507124523833E+00
111  1.1000000000000E+00  4.3524742706721E-02  1.1752340345333E+00
112  1.1100000000000E+00  2.0391458886040E-02  1.2000149736624E+00
113  1.1200000000000E+00 -2.2082060907083E-03  1.2249397759288E+00
114  1.1300000000000E+00 -2.4250154390588E-02  1.2498787314290E+00
115  1.1400000000000E+00 -4.5709645786393E-02  1.2746883486760E+00
116  1.1500000000000E+00 -6.6561300815971E-02  1.2992119292187E+00
117  1.1600000000000E+00 -8.6779119060467E-02  1.3232802834914E+00
118  1.1700000000000E+00 -1.0633651317805E-01  1.3467125883498E+00
119  1.1800000000000E+00 -1.2520635930696E-01  1.3693173861362E+00
120  1.1900000000000E+00 -1.4336106443125E-01  1.3908937245009E+00
121  1.2000000000000E+00 -1.6077265128387E-01  1.4112324356016E+00
122  1.2100000000000E+00 -1.7741286134149E-01  1.4301175526831E+00
123  1.2200000000000E+00 -1.9325327644268E-01  1.4473278614061E+00
124  1.2300000000000E+00 -2.0826545953193E-01  1.4626385826355E+00
125  1.2400000000000E+00 -2.2242111499388E-01  1.4758231826894E+00
126  1.2500000000000E+00 -2.3569226899119E-01  1.4866553062886E+00
127  1.2600000000000E+00 -2.4805147015196E-01  1.4949108266093E+00
128  1.2700000000000E+00 -2.5947201086322E-01  1.5003700058965E+00
129  1.2800000000000E+00 -2.6992816931267E-01  1.5028197590468E+00
130  1.2900000000000E+00 -2.7939547227430E-01  1.5020560113655E+00
131  1.3000000000000E+00 -2.8785097845051E-01  1.4978861403326E+00
132  1.3100000000000E+00 -2.9527358195808E-01  1.4901314896478E+00
133  1.3200000000000E+00 -3.0164433527135E-01  1.4786299420370E+00
134  1.3300000000000E+00 -3.0694679060567E-01  1.4632385352470E+00
135  1.3400000000000E+00 -3.1116735833295E-01  1.4438361033231E+00
136  1.3500000000000E+00 -3.1429568056195E-01  1.4203259226100E+00
137  1.3600000000000E+00 -3.1632501747805E-01  1.3926383388936E+00
138  1.3700000000000E+00 -3.1725264341807E-01  1.3607333486998E+00
139  1.3800000000000E+00 -3.1708024894390E-01  1.3246031039216E+00
140  1.3900000000000E+00 -3.1581434437126E-01  1.2842743046553E+00
141  1.4000000000000E+00 -3.1346665929066E-01  1.2398104403004E+00
142  1.4100000000000E+00 -3.1005453158726E-01  1.1913138336220E+00
143  1.4200000000000E+00 -3.0560127831219E-01  1.1389274365322E+00
144  1.4300000000000E+00 -3.0013653946824E-01  1.0828363197466E+00
145  1.4400000000000E+00 -2.9369658435238E-01  1.0232687912503E+00
146  1.4500000000000E+00 -2.8632456851355E-01  9.6049707048846E-01
147  1.4600000000000E+00 -2.7807072765310E-01  8.9483743647092E-01
148  1.4700000000000E+00 -2.6899249289108E-01  8.2664975840678E-01
149  1.4800000000000E+00 -2.5915450974059E-01  7.5633630705257E-01
150  1.4900000000000E+00 -2.4862854086004E-01  6.8433973358394E-01
151  1.5000000000000E+00 -2.3749323018933E-01  6.1114009048926E-01
152  1.5100000000000E+00 -2.2583370339557E-01  5.3725075559935E-01
153  1.5200000000000E+00 -2.1374097665159E-01  4.6321310588667E-01
154  1.5300000000000E+00 -2.0131114264209E-01  3.8958977206253E-01
155  1.5400000000000E+00 -1.8864429931108E-01  3.1695628813592E-01
156  1.5500000000000E+00 -1.7584318322728E-01  2.4589093195187E-01
157  1.5600000000000E+00 -1.6301146553299E-01  1.7696253320862E-01
158  1.5700000000000E+00 -1.5025166424411E-01  1.1071600449008E-01
159  1.5800000000000E+00 -1.3766262216856E-01  4.7655328361311E-02
160  1.5900000000000E+00 -1.2533649299971E-01 -1.1776304497592E-02
161  1.6000000000000E+00 -1.1335520099176E-01 -6.7219327132010E-02
162  1.6100000000000E+00 -1.0178615841202E-01 -1.1842507558188E-01
163  1.6200000000000E+00 -9.0679081897150E-02 -1.6527340638572E-01
164  1.6300000000000E+00 -8.0071830729421E-02 -2.0772230830402E-01
165  1.6400000000000E+00 -6.9997127303615E-02 -2.4575461647591E-01
166  1.6500000000000E+00 -6.0482719233803E-02 -2.7937631835752E-01
167  1.6600000000000E+00 -5.1551336507885E-02 -3.0861652410105E-01
168  1.6700000000000E+00 -4.3220653585447E-02 -3.3352751428620E-01
169  1.6800000000000E+00 -3.5503287863203E-02 -3.5418461391350E-01
170  1.6900000000000E+00 -2.8406837789611E-02 -3.7068586937348E-01
171  1.7000000000000E+00 -2.1933959428526E-02 -3.8315153749047E-01
172  1.7100000000000E+00 -1.6082481111746E-02 -3.9172338834373E-01
173  1.7200000000000E+00 -1.0845555425425E-02 -3.9656382566519E-01
174  1.7300000000000E+00 -6.2118474588947E-03 -3.9785483015178E-01
175  1.7400000000000E+00 -2.1657579598227E-03 -3.9579673238108E-01
176  1.7500000000000E+00  1.3123204487116E-03 -3.9060682476307E-01
177  1.7600000000000E+00  4.2457158945021E-03 -3.8251782184741E-01
178  1.7700000000000E+00  6.6611604390109E-03 -3.7177617655124E-01
179  1.7800000000000E+00  8.5884490216552E-03 -3.5864028273118E-01
180  1.7900000000000E+00  1.0060072220310E-02 -3.4337854639654E-01
181  1.8000000000000E+00  1.1110830809946E-02 -3.2626737372994E-01
182  1.8100000000000E+00  1.1777432481519E-02 -3.0758907292126E-01
183  1.8200000000000E+00  1.2098074963852E-02 -2.8762969243642E-01
184  1.8300000000000E+00  1.2112019160891E-02 -2.6667681389858E-01
185  1.8400000000000E+00  1.1859155872542E-02 -2.4501731730473E-01
186  1.8500000000000E+00  1.1379569882549E-02 -2.2293513760698E-01
187  1.8600000000000E+00  1.0713105197272E-02 -2.0070903163114E-01
188  1.8700000000000E+00  9.8989362774071E-03 -1.7861037842430E-01
189  1.8800000000000E+00  8.9751405858596E-03 -1.5690099930780E-01
190  1.8900000000000E+00  7.9783040644274E-03 -1.3583112383273E-01
191  1.9000000000000E+00  6.9431234687710E-03 -1.1563736516986E-01
192  1.9100000000000E+00  5.9016460496541E-03 -9.6539337071706E-02
193  1.9200000000000E+00  4.8810777383247E-03 -7.8730579305294E-02
194  1.9300000000000E+00  3.9079921103020E-03 -6.2394473550522E-02
195  1.9400000000000E+00  3.0075364504425E-03 -4.7701029766467E-02
196  1.9500000000000E+00  2.2008558810332E-03 -3.4796693465378E-02
197  1.9600000000000E+00  1.5052548993115E-03 -2.3804632826744E-02
198  1.9700000000000E+00  9.3394578226922E-04 -1.4823516903754E-02
199  1.9800000000000E+00  4.9606220564242E-04 -7.9295982723124E-03
200  1.9900000000000E+00  1.9442657305923E-04 -3.1404343550755E-03
201  2.0000000000000E+00  3.7210100428757E-05 -6.1009750421449E-04
202  2.0100000000000E+00 -3.9693294694179E-06  6.5751083768526E-05
203  2.0200000000000E+00  3.6562538796991E-07 -6.0089102157574E-06
204  2.03  0. -0.
205  2.04 -0.  0.
206  2.05 -0.  0.
207  2.06  0.  0.
208  2.07  0.  0.
209  2.08  0.  0.
210  2.09  0.  0.
211  2.10  0.  0.
212  2.11  0.  0.
213  2.12  0.  0.
214  2.13  0.  0.
215  2.14  0.  0.
216  2.15  0.  0.
217  2.16  0.  0.
218  2.17  0.  0.
219  2.18  0.  0.
220  2.19  0.  0.
221  2.20  0.  0.
222  2.21  0.  0.
223  2.22  0.  0.
224  2.23  0.  0.
225  2.24  0.  0.
226  2.25  0.  0.
227  2.26  0.  0.
228  2.27  0.  0.
229  2.28  0.  0.
230  2.29  0.  0.
231  2.30  0.  0.
232  2.31  0.  0.
233  2.32  0.  0.
234  2.33  0.  0.
235  2.34  0.  0.
236  2.35  0.  0.
237  2.36  0.  0.
238  2.37  0.  0.
239  2.38  0.  0.
240  2.39  0.  0.
241  2.40  0.  0.
242  2.41  0.  0.
243  2.42  0.  0.
244  2.43  0.  0.
245  2.44  0.  0.
246  2.45  0.  0.
247  2.46  0.  0.
248  2.47  0.  0.
249  2.48  0.  0.
250  2.49  0.  0.
251  2.50  0.  0.
252  2.51  0.  0.
253  2.52  0.  0.
254  2.53  0.  0.
255  2.54  0.  0.
256  2.55  0.  0.
257  2.56  0.  0.
258  2.57  0.  0.
259  2.58  0.  0.
260  2.59  0.  0.
261  2.60  0.  0.
262  2.61  0.  0.
263  2.62  0.  0.
264  2.63  0.  0.
265  2.64  0.  0.
266  2.65  0.  0.
267  2.66  0.  0.
268  2.67  0.  0.
269  2.68  0.  0.
270  2.69  0.  0.
271  2.70  0.  0.
272  2.71  0.  0.
273  2.72  0.  0.
274  2.73  0.  0.
275  2.74  0.  0.
276  2.75  0.  0.
277  2.76  0.  0.
278  2.77  0.  0.
279  2.78  0.  0.
280  2.79  0.  0.
281  2.80  0.  0.
282  2.81  0.  0.
283  2.82  0.  0.
284  2.83  0.  0.
285  2.84  0.  0.
286  2.85  0.  0.
287  2.86  0.  0.
288  2.87  0.  0.
289  2.88  0.  0.
290  2.89  0.  0.
291  2.90  0.  0.
292  2.91  0.  0.
293  2.92  0.  0.
294  2.93  0.  0.
295  2.94  0.  0.
296  2.95  0.  0.
297  2.96  0.  0.
298  2.97  0.  0.
299  2.98  0.  0.
300  2.99  0.  0.
301  3.00  0.  0.
302  3.01  0.  0.
303  3.02  0.  0.
304  3.03  0.  0.
305  3.04  0.  0.
306  3.05  0.  0.
307  3.06  0.  0.
308  3.07  0.  0.
309  3.08  0.  0.
310  3.09  0.  0.
311  3.10  0.  0.
312  3.11  0.  0.
313  3.12  0.  0.
314  3.13  0.  0.
315  3.14  0.  0.
316  3.15  0.  0.
317  3.16  0.  0.
318  3.17  0.  0.
319  3.18  0.  0.
320  3.19  0.  0.
321  3.20  0.  0.
322  3.21  0.  0.
323  3.22  0.  0.
324  3.23  0.  0.
325  3.24  0.  0.
326  3.25  0.  0.
327  3.26  0.  0.
328  3.27  0.  0.
329  3.28  0.  0.
330  3.29  0.  0.
331  3.30  0.  0.
332  3.31  0.  0.
333  3.32  0.  0.
334  3.33  0.  0.
335  3.34  0.  0.
336  3.35  0.  0.
337  3.36  0.  0.
338  3.37  0.  0.
339  3.38  0.  0.
340  3.39  0.  0.
341  3.40  0.  0.
342  3.41  0.  0.
343  3.42  0.  0.
344  3.43  0.  0.
345  3.44  0.  0.
346  3.45  0.  0.
347  3.46  0.  0.
348  3.47  0.  0.
349  3.48  0.  0.
350  3.49  0.  0.
351  3.50  0.  0.
352  3.51  0.  0.
353  3.52  0.  0.
354  3.53  0.  0.
355  3.54  0.  0.
356  3.55  0.  0.
357  3.56  0.  0.
358  3.57  0.  0.
359  3.58  0.  0.
360  3.59  0.  0.
361  3.60  0.  0.
362  3.61  0.  0.
363  3.62  0.  0.
364  3.63  0.  0.
365  3.64  0.  0.
366  3.65  0.  0.
367  3.66  0.  0.
368  3.67  0.  0.
369  3.68  0.  0.
370  3.69  0.  0.
371  3.70  0.  0.
372  3.71  0.  0.
373  3.72  0.  0.
374  3.73  0.  0.
375  3.74  0.  0.
376  3.75  0.  0.
377  3.76  0.  0.
378  3.77  0.  0.
379  3.78  0.  0.
380  3.79  0.  0.
381  3.80  0.  0.
382  3.81  0.  0.
383  3.82  0.  0.
384  3.83  0.  0.
385  3.84  0.  0.
386  3.85  0.  0.
387  3.86  0.  0.
388  3.87  0.  0.
389  3.88  0.  0.
390  3.89  0.  0.
391  3.90  0.  0.
392  3.91  0.  0.
393  3.92  0.  0.
394  3.93  0.  0.
395  3.94  0.  0.
396  3.95  0.  0.
397  3.96  0.  0.
398  3.97  0.  0.
399  3.98  0.  0.
400  3.99  0.  0.
401  4.00  0.  0.
402  4.01  0.  0.
403  4.02  0.  0.
404  4.03  0.  0.
405  4.04  0.  0.
406  4.05  0.  0.
407  4.06  0.  0.
408  4.07  0.  0.
409  4.08  0.  0.
410  4.09  0.  0.
411  4.10  0.  0.
412  4.11  0.  0.
413  4.12  0.  0.
414  4.13  0.  0.
415  4.14  0.  0.
416  4.15  0.  0.
417  4.16  0.  0.
418  4.17  0.  0.
419  4.18  0.  0.
420  4.19  0.  0.
421  4.20  0.  0.
422  4.21  0.  0.
423  4.22  0.  0.
424  4.23  0.  0.
425  4.24  0.  0.
426  4.25  0.  0.
427  4.26  0.  0.
428  4.27  0.  0.
429  4.28  0.  0.
430  4.29  0.  0.
431  4.30  0.  0.
432  4.31  0.  0.
433  4.32  0.  0.
434  4.33  0.  0.
435  4.34  0.  0.
436  4.35  0.  0.
437  4.36  0.  0.
438  4.37  0.  0.
439  4.38  0.  0.
440  4.39  0.  0.
441  4.40  0.  0.
442  4.41  0.  0.
443  4.42  0.  0.
444  4.43  0.  0.
445  4.44  0.  0.
446  4.45  0.  0.
447  4.46  0.  0.
448  4.47  0.  0.
449  4.48  0.  0.
450  4.49  0.  0.
451  4.50  0.  0.
452  4.51  0.  0.
453  4.52  0.  0.
454  4.53  0.  0.
455  4.54  0.  0.
456  4.55  0.  0.
457  4.56  0.  0.
458  4.57  0.  0.
459  4.58  0.  0.
460  4.59  0.  0.
461  4.60  0.  0.
462  4.61  0.  0.
463  4.62  0.  0.
464  4.63  0.  0.
465  4.64  0.  0.
466  4.65  0.  0.
467  4.66  0.  0.
468  4.67  0.  0.
469  4.68  0.  0.
470  4.69  0.  0.
471  4.70  0.  0.
472  4.71  0.  0.
473  4.72  0.  0.
474  4.73  0.  0.
475  4.74  0.  0.
476  4.75  0.  0.
477  4.76  0.  0.
478  4.77  0.  0.
479  4.78  0.  0.
480  4.79  0.  0.
481  4.80  0.  0.
482  4.81  0.  0.
483  4.82  0.  0.
484  4.83  0.  0.
485  4.84  0.  0.
486  4.85  0.  0.
487  4.86  0.  0.
488  4.87  0.  0.
489  4.88  0.  0.
490  4.89  0.  0.
491  4.90  0.  0.
492  4.91  0.  0.
493  4.92  0.  0.
494  4.93  0.  0.
495  4.94  0.  0.
496  4.95  0.  0.
497  4.96  0.  0.
498  4.97  0.  0.
499  4.98  0.  0.
500  4.99  0.  0.
501  5.00  0.  0.
502  5.01  0.  0.
503  5.02  0.  0.
504  5.03  0.  0.
505  5.04  0.  0.
506  5.05  0.  0.
507  5.06  0.  0.
508  5.07  0.  0.
509  5.08  0.  0.
510  5.09  0.  0.
511  5.10  0.  0.
512  5.11  0.  0.
513  5.12  0.  0.
514  5.13  0.  0.
515  5.14  0.  0.
516  5.15  0.  0.
517  5.16  0.  0.
518  5.17  0.  0.
519  5.18  0.  0.
520  5.19  0.  0.
521  5.20  0.  0.
522  5.21  0.  0.
523  5.22  0.  0.
524  5.23  0.  0.
525  5.24  0.  0.
526  5.25  0.  0.
527  5.26  0.  0.
528  5.27  0.  0.
529  5.28  0.  0.
530  5.29  0.  0.
531  5.30  0.  0.
532  5.31  0.  0.
533  5.32  0.  0.
534  5.33  0.  0.
535  5.34  0.  0.
536  5.35  0.  0.
537  5.36  0.  0.
538  5.37  0.  0.
539  5.38  0.  0.
540  5.39  0.  0.
541  5.40  0.  0.
542  5.41  0.  0.
543  5.42  0.  0.
544  5.43  0.  0.
545  5.44  0.  0.
546  5.45  0.  0.
547  5.46  0.  0.
548  5.47  0.  0.
549  5.48  0.  0.
550  5.49  0.  0.
551  5.50  0.  0.
552  5.51  0.  0.
553  5.52  0.  0.
554  5.53  0.  0.
555  5.54  0.  0.
556  5.55  0.  0.
557  5.56  0.  0.
558  5.57  0.  0.
559  5.58  0.  0.
560  5.59  0.  0.
561  5.60  0.  0.
562  5.61  0.  0.
563  5.62  0.  0.
564  5.63  0.  0.
565  5.64  0.  0.
566  5.65  0.  0.
567  5.66  0.  0.
568  5.67  0.  0.
569  5.68  0.  0.
570  5.69  0.  0.
571  5.70  0.  0.
572  5.71  0.  0.
573  5.72  0.  0.
574  5.73  0.  0.
575  5.74  0.  0.
576  5.75  0.  0.
577  5.76  0.  0.
578  5.77  0.  0.
579  5.78  0.  0.
580  5.79  0.  0.
581  5.80  0.  0.
582  5.81  0.  0.
583  5.82  0.  0.
584  5.83  0.  0.
585  5.84  0.  0.
586  5.85  0.  0.
587  5.86  0.  0.
588  5.87  0.  0.
589  5.88  0.  0.
590  5.89  0.  0.
591  5.90  0.  0.
592  5.91  0.  0.
593  5.92  0.  0.
594  5.93  0.  0.
595  5.94  0.  0.
596  5.95  0.  0.
597  5.96  0.  0.
598  5.97  0.  0.
599  5.98  0.  0.
600  5.99  0.  0.
1                         4.8363164325457E+00  3.7512264967597E-01
1  0.0000000000000E+00  8.3944946827064E-09 -6.4167979957341E-08
2  1.0000000000000E-02  1.3629594031565E-03 -4.0254257348992E-03
3  2.0000000000000E-02  5.4377393538463E-03 -1.6005851434166E-02
4  3.0000000000000E-02  1.2182299465647E-02 -3.5655665735482E-02
5  4.0000000000000E-02  2.1527415457325E-02 -6.2505289218266E-02
6  5.0000000000000E-02  3.3377926512694E-02 -9.5910702572232E-02
7  6.0000000000000E-02  4.7614447554673E-02 -1.3506652637704E-01
8  7.0000000000000E-02  6.4095513188290E-02 -1.7902239875361E-01
9  8.0000000000000E-02  8.2660111672896E-02 -2.2670233297985E-01
10  9.0000000000000E-02  1.0313055968867E-01 -2.7692667902743E-01
11  1.0000000000000E-01  1.2531566201310E-01 -3.2843626197963E-01
12  1.1000000000000E-01  1.4901409464816E-01 -3.7991822740659E-01
13  1.2000000000000E-01  1.7401794554639E-01 -4.3003308982573E-01
14  1.3000000000000E-01  2.0011634396023E-01 -4.7744245601689E-01
15  1.4000000000000E-01  2.2709910764573E-01 -5.2083688066900E-01
16  1.5000000000000E-01  2.5476033672551E-01 -5.5896330789547E-01
17  1.6000000000000E-01  2.8290188396810E-01 -5.9065155866144E-01
18  1.7000000000000E-01  3.1133663355543E-01 -6.1483934101353E-01
19  1.8000000000000E-01  3.3989152404686E-01 -6.3059528689525E-01
20  1.9000000000000E-01  3.6841025613928E-01 -6.3713955577915E-01
21  2.0000000000000E-01  3.9675563187872E-01 -6.3386159068341E-01
22  2.1000000000000E-01  4.2481147908658E-01 -6.2033466552843E-01
23  2.2000000000000E-01  4.5248412278913E-01 -5.9632692323805E-01
24  2.3000000000000E-01  4.7970337423220E-01 -5.6180867037361E-01
25  2.4000000000000E-01  5.0642301745748E-01 -5.1695576517005E-01
26  2.5000000000000E-01  5.3262078323417E-01 -4.6214901028546E-01
27  2.6000000000000E-01  5.5829781019340E-01 -3.9796953798448E-01
28  2.7000000000000E-01  5.8347760311137E-01 -3.2519025240875E-01
29  2.8000000000000E-01  6.0820450823585E-01 -2.4476346959002E-01
30  2.9000000000000E-01  6.3254173515967E-01 -1.5780496949382E-01
31  3.0000000000000E-01  6.5656896382673E-01 -6.5574744239050E-02
32  3.1000000000000E-01  6.8037958363596E-01  3.0545208613062E-02
33  3.2000000000000E-01  7.0407761912115E-01  1.2907564041308E-01
34  3.3000000000000E-01  7.2777440318274E-01  2.2846689522402E-01
35  3.4000000000000E-01  7.5158506420031E-01  3.2712734244091E-01
36  3.5000000000000E-01  7.7562489745535E-01  4.2345286448667E-01
37  3.6000000000000E-01  8.0000569405482E-01  5.1585684271012E-01
38  3.7000000000000E-01  8.2483210190965E-01  6.0280007194427E-01
39  3.8000000000000E-01  8.5019809325204E-01  6.8282003226685E-01
40  3.9000000000000E-01  8.7618361166643E-01  7.5455895542647E-01
41  4.0000000000000E-01  9.0285146867967E-01  8.1679014303899E-01
42  4.1000000000000E-01  9.3024455565483E-01  8.6844202370027E-01
43  4.2000000000000E-01  9.5838343113353E-01  9.0861947608840E-01
44  4.3000000000000E-01  9.8726433697178E-01  9.3662199423293E-01
45  4.4000000000000E-01  1.0168576887370E+00  9.5195832853410E-01
46  4.5000000000000E-01  1.0471070770218E+00  9.5435730077621E-01
47  4.6000000000000E-01  1.0779288067454E+00  9.4377456211611E-01
48  4.7000000000000E-01  1.1092119913325E+00  9.2039513853660E-01
49  4.8000000000000E-01  1.1408192080759E+00  8.8463168713497E-01
50  4.9000000000000E-01  1.1725877101936E+00  8.3711846739941E-01
51  5.0000000000000E-01  1.2043311803000E+00  7.7870111279750E-01
52  5.1000000000000E-01  1.2358419994169E+00  7.1042236803016E-01
53  5.2000000000000E-01  1.2668939954631E+00  6.3350403467720E-01
54  5.3000000000000E-01  1.2972456255804E+00  5.4932544120182E-01
55  5.4000000000000E-01  1.3266435378576E+00  4.5939882098552E-01
56  5.5000000000000E-01  1.3548264501802E+00  3.6534204292442E-01
57  5.6000000000000E-01  1.3815292772223E+00  2.6884919194491E-01
58  5.7000000000000E-01  1.4064874311324E+00  1.7165954054886E-01
59  5.8000000000000E-01  1.4294412173738E+00  7.5525486297513E-02
60  5.9000000000000E-01  1.4501402445381E+00 -1.7819946706505E-02
61  6.0000000000000E-01  1.4683477658292E+00 -1.0669543227699E-01
62  6.1000000000000E-01  1.4838448703395E+00 -1.8950288191711E-01
63  6.2000000000000E-01  1.4964344442167E+00 -2.6475760023936E-01
64  6.3000000000000E-01  1.5059448253278E+00 -3.3111647870145E-01
65  6.4000000000000E-01  1.5122330800002E+00 -3.8740368369053E-01
66  6.5000000000000E-01  1.5151878367895E+00 -4.3263333881800E-01
67  6.6000000000000E-01  1.5147316198692E+00 -4.6602875481633E-01
68  6.7000000000000E-01  1.5108226334295E+00 -4.8703782270751E-01
69  6.8000000000000E-01  1.5034559582507E+00 -4.9534425582318E-01
70  6.9000000000000E-01  1.4926641322081E+00 -4.9087444251556E-01
71  7.0000000000000E-01  1.4785170976705E+00 -4.7379975262326E-01
72  7.1000000000000E-01  1.4611215103706E+00 -4.4453422542526E-01
73  7.2000000000000E-01  1.4406194161358E+00 -4.0372765337607E-01
74  7.3000000000000E-01  1.4171863136505E+00 -3.5225416272285E-01
75  7.4000000000000E-01  1.3910286329521E+00 -2.9119647754565E-01
76  7.5000000000000E-01  1.3623806704261E+00 -2.2182613620401E-01
77  7.6000000000000E-01  1.3315010314491E+00 -1.4558000704773E-01
78  7.7000000000000E-01  1.2986686413264E+00 -6.4033522068012E-02
79  7.8000000000000E-01  1.2641783936073E+00  2.1128888468282E-02
80  7.9000000000000E-01  1.2283365120596E+00  1.0814562169737E-01
81  8.0000000000000E-01  1.1914557084105E+00  1.9521140358614E-01
82  8.1000000000000E-01  1.1538502222873E+00  2.8051184641093E-01
83  8.2000000000000E-01  1.1158308325342E+00  3.6225841889665E-01
84  8.3000000000000E-01  1.0776999301690E+00  4.3872317389236E-01
85  8.4000000000000E-01  1.0397467426594E+00  5.0827257896301E-01
86  8.5000000000000E-01  1.0022427969222E+00  5.6939980808135E-01
87  8.6000000000000E-01  9.6543770453940E-01  6.2075487752881E-01
88  8.7000000000000E-01  9.2955534717710E-01  6.6117204575634E-01
89  8.8000000000000E-01  8.9479053320517E-01  6.8969394468430E-01
90  8.9000000000000E-01  8.6130618815643E-01  7.0559196789411E-01
91  9.0000000000000E-01  8.2923113208672E-01  7.0838250834213E-01
92  9.1000000000000E-01  7.9865848627644E-01  6.9783871339037E-01
93  9.2000000000000E-01  7.6964474024303E-01  6.7399750672054E-01
94  9.3000000000000E-01  7.4220949792284E-01  6.3716171357395E-01
95  9.4000000000000E-01  7.1633590935546E-01  5.8789721613131E-01
96  9.5000000000000E-01  6.9197178149733E-01  5.2702515802326E-01
97  9.6000000000000E-01  6.6903134914186E-01  4.5560930922997E-01
98  9.7000000000000E-01  6.4739767456790E-01  3.7493879325292E-01
99  9.8000000000000E-01  6.2692563271494E-01  2.8650646569488E-01
100  9.9000000000000E-01  6.0744542760754E-01  1.9198331567393E-01
101  1.0000000000000E+00  5.8876657564578E-01  9.3189337187624E-02
102  1.0100000000000E+00  5.7068228242950E-01 -7.9386147596798E-03
103  1.0200000000000E+00  5.5297413216603E-01 -1.0938141004557E-01
104  1.0300000000000E+00  5.3541700257188E-01 -2.0907405012389E-01
105  1.0400000000000E+00  5.1778411364369E-01 -3.0494323769805E-01
106  1.0500000000000E+00  4.9985211582480E-01 -3.9494542695766E-01
107  1.0600000000000E+00  4.8140612199939E-01 -4.7710465995592E-01
108  1.0700000000000E+00  4.6224458842417E-01 -5.4954949548128E-01
109  1.0800000000000E+00  4.4218395215805E-01 -6.1054835038569E-01
110  1.0900000000000E+00  4.2106293672813E-01 -6.5854259953150E-01
111  1.1000000000000E+00  3.9874644359524E-01 -6.9217681878077E-01
112  1.1100000000000E+00  3.7512895437723E-01 -7.1032560528271E-01
113  1.1200000000000E+00  3.5013737755969E-01 -7.1211646938491E-01
114  1.1300000000000E+00  3.2373328350707E-01 -6.9694836237983E-01
115  1.1400000000000E+00  2.9591448265932E-01 -6.6450548173117E-01
116  1.1500000000000E+00  2.6671591383248E-01 -6.1476608023371E-01
117  1.1600000000000E+00  2.3620982210161E-01 -5.4800609466915E-01
118  1.1700000000000E+00  2.0450521883231E-01 -4.6479750294922E-01
119  1.1800000000000E+00  1.7174662955992E-01 -3.6600141303930E-01
120  1.1900000000000E+00  1.3811214857221E-01 -2.5275598199766E-01
121  1.2000000000000E+00  1.0381083180758E-01 -1.2645935618413E-01
122  1.2100000000000E+00  6.9079471910044E-02  1.1252086810236E-02
123  1.2200000000000E+00  3.4178810740472E-02  1.5852982944759E-01
124  1.2300000000000E+00 -6.1074496549559E-04  3.1334319632140E-01
125  1.2400000000000E+00 -3.4993829806290E-02  4.7351271457828E-01
126  1.2500000000000E+00 -6.8665164960055E-02  6.3674628019474E-01
127  1.2600000000000E+00 -1.0131485324852E-01  8.0067750757823E-01
128  1.2700000000000E+00 -1.3263383004161E-01  9.6290560121252E-01
129  1.2800000000000E+00 -1.6231937299228E-01  1.1210360613873E+00
130  1.2900000000000E+00 -1.9008057229475E-01  1.2727215215144E+00
131  1.3000000000000E+00 -2.1564366366184E-01  1.4157020126532E+00
132  1.3100000000000E+00 -2.3875712847721E-01  1.5478439614198E+00
133  1.3200000000000E+00 -2.5919646954927E-01  1.6671772501278E+00
134  1.3300000000000E+00 -2.7676857653054E-01  1.7719297025255E+00