<?xml version="1.0" encoding="UTF-8" ?>
<psml version="1.1" energy_unit="hartree" length_unit="bohr"
 uuid="a169ee80-c73d-11ed-6132-7fa2dbff3d08"
 xmlns="http://esl.cecam.org/PSML/ns/1.1">
<provenance creator="ONCVPSP-4.0.1+psml-4.0.1-76 (scalar-relativistic)"
 date="2023-03-20">
<annotation action="semilocal-pseudopotential-generation"
 action-cont="projectors-generation" />
<input-file name="oncvpsp-input">
<![CDATA[# atsym z nc nv iexc psfile
Rb 37 6 3 4 both
# n l f
1 0 2.0
2 0 2.0
2 1 6.0
3 0 2.0
3 1 6.0
3 2 10.0
4 0 2.0
4 1 6.0
5 0 1.0
# lmax
3
# l rc ep ncon nbas qcut
0 1.7 0.0 4 9 6.4
1 1.7 0.0 4 9 6.8
2 1.7 0.05 4 9 7.4
3 1.7 0.05 4 9 6.0
# lloc lpopt rc5 dvloc0
4 5 1.7 2.5
# l nproj debl
0 2 1.0
1 2 3.5
2 2 2.5
3 1 2.5
# icmod fcfact rcfact
3 7.0 1.25
# epsh1 epsh2 depsh
-12.0 12.0 0.02
# rlmax drl
6.0 0.01
0
]]>
</input-file>
</provenance>
<pseudo-atom-spec atomic-label="Rb" atomic-number="37" z-pseudo="9"
 flavor="Hamann&apos;s oncvpsp" relativity="scalar" spin-dft="no"
 core-corrections="yes">
<annotation pseudo-energy="-24.2581377644" cutoff_hint_low="23"
 cutoff_hint_normal="34" cutoff_hint_high="58" />
<exchange-correlation>
<annotation oncvpsp-xc-code="4" oncvpsp-xc-type="GGA -- Perdew-Burke-Ernzerhof" />
<libxc-info number-of-functionals="2">
<functional name="Perdew, Burke &amp; Ernzerhof (GGA)" type="exchange" id="101" />
<functional name="Perdew, Burke &amp; Ernzerhof (GGA)" type="correlation"
 id="130" />
</libxc-info>
</exchange-correlation>
<valence-configuration total-valence-charge="9">
<shell n="4" l="s" occupation="2" />
<shell n="4" l="p" occupation="6" />
<shell n="5" l="s" occupation="1" />
</valence-configuration>
</pseudo-atom-spec>
<grid npts="797">
<annotation type="sampled from oncvpsp log grid"
 recipe="r(i:1..N) = r1*exp(a*(i-1)) + r=0; resampled"
 recipe-cont="r1: scale; a: step" scale="0.135135135135E-04"
 step="0.598207167755E-02" delta="0.500000000000E-02" rmax="44.5760833208" />
<grid-data>
  0.000000000000E+00  5.013848560204E-03  1.003545287208E-02  1.507299880517E-02
  2.008642924462E-02  2.521308608518E-02  3.035032940025E-02  3.545772828540E-02
  4.068782399842E-02  4.585894702765E-02  5.107257226248E-02  5.620247267005E-02
  6.147876488611E-02  6.684929999862E-02  7.225545053490E-02  7.763300230433E-02
  8.291329412384E-02  8.802458314930E-02  9.345096369028E-02  9.862013910488E-02
  1.040752438819E-01  1.091770318154E-01  1.145289103482E-01  1.201431389683E-01
  1.252808927695E-01  1.306383554476E-01  1.362249225462E-01  1.420503913965E-01
  1.472415291239E-01  1.526223735507E-01  1.581998573830E-01  1.639811666780E-01
  1.699737501025E-01  1.751345214016E-01  1.804519848982E-01  1.859308981067E-01
  1.915761629903E-01  1.973928303461E-01  2.033861043245E-01  2.095613470853E-01
  2.146362659989E-01  2.198340835403E-01  2.251577759288E-01  2.306103914588E-01
  2.361950522447E-01  2.419149560085E-01  2.477733779112E-01  2.537736724280E-01
  2.599192752689E-01  2.662137053459E-01  2.726605667882E-01  2.792635510056E-01
  2.843205157082E-01  2.894690530199E-01  2.947108211573E-01  3.000475083643E-01
  3.054808334560E-01  3.110125463721E-01  3.166444287405E-01  3.223782944514E-01
  3.282159902410E-01  3.341593962869E-01  3.402104268133E-01  3.463710307075E-01
  3.526431921477E-01  3.590289312420E-01  3.655303046792E-01  3.721494063909E-01
  3.788883682261E-01  3.857493606378E-01  3.927345933821E-01  3.998463162298E-01
  4.070868196909E-01  4.144584357526E-01  4.219635386302E-01  4.270422917811E-01
  4.321821728050E-01  4.373839174369E-01  4.426482702672E-01  4.479759848481E-01
  4.533678238017E-01  4.588245589290E-01  4.643469713203E-01  4.699358514671E-01
  4.755919993754E-01  4.813162246798E-01  4.871093467601E-01  4.929721948577E-01
  4.989056081950E-01  5.049104360952E-01  5.109875381041E-01  5.171377841127E-01
  5.233620544823E-01  5.296612401700E-01  5.360362428567E-01  5.424879750757E-01
  5.490173603438E-01  5.556253332928E-01  5.623128398044E-01  5.690808371442E-01
  5.759302941001E-01  5.828621911199E-01  5.898775204522E-01  5.969772862884E-01
  6.041625049062E-01  6.114342048152E-01  6.187934269044E-01  6.262412245906E-01
  6.337786639698E-01  6.414068239693E-01  6.491267965026E-01  6.569396866253E-01
  6.648466126935E-01  6.728487065239E-01  6.809471135556E-01  6.891429930144E-01
  6.974375180783E-01  7.058318760459E-01  7.143272685060E-01  7.229249115097E-01
  7.316260357446E-01  7.404318867109E-01  7.493437248993E-01  7.583628259722E-01
  7.674904809456E-01  7.767279963743E-01  7.860766945386E-01  7.955379136341E-01
  8.051130079626E-01  8.148033481264E-01  8.246103212245E-01  8.345353310507E-01
  8.395425430370E-01  8.445797982953E-01  8.496472770850E-01  8.547451607475E-01
  8.598736317120E-01  8.650328735023E-01  8.702230707433E-01  8.754444091678E-01
  8.806970756228E-01  8.859812580765E-01  8.912971456250E-01  8.966449284987E-01
  9.020247980697E-01  9.074369468581E-01  9.128815685393E-01  9.183588579505E-01
  9.238690110982E-01  9.294122251648E-01  9.349886985158E-01  9.405986307069E-01
  9.462422224911E-01  9.519196758261E-01  9.576311938810E-01  9.633769810443E-01
  9.691572429306E-01  9.749721863882E-01  9.808220195065E-01  9.867069516235E-01
  9.926271933333E-01  9.985829564933E-01  1.004574454232E+00  1.010601900958E+00
  1.016665512363E+00  1.022765505438E+00  1.028902098470E+00  1.035075511061E+00
  1.041285964127E+00  1.047533679912E+00  1.053818881992E+00  1.060141795284E+00
  1.066502646055E+00  1.072901661932E+00  1.079339071903E+00  1.085815106335E+00
  1.092329996973E+00  1.098883976954E+00  1.105477280816E+00  1.112110144501E+00
  1.118782805368E+00  1.125495502200E+00  1.132248475213E+00  1.139041966065E+00
  1.145876217861E+00  1.152751475168E+00  1.159667984019E+00  1.166625991923E+00
  1.173625747875E+00  1.180667502362E+00  1.187751507376E+00  1.194878016421E+00
  1.202047284519E+00  1.209259568226E+00  1.216515125636E+00  1.223814216389E+00
  1.231157101688E+00  1.238544044298E+00  1.245975308564E+00  1.253451160415E+00
  1.260971867378E+00  1.268537698582E+00  1.276148924773E+00  1.283805818322E+00
  1.291508653232E+00  1.299257705151E+00  1.307053251382E+00  1.314895570891E+00
  1.322784944316E+00  1.330721653982E+00  1.338705983906E+00  1.346738219809E+00
  1.354818649128E+00  1.362947561023E+00  1.371125246389E+00  1.379351997867E+00
  1.387628109854E+00  1.395953878514E+00  1.404329601785E+00  1.412755579395E+00
  1.421232112872E+00  1.429759505549E+00  1.438338062582E+00  1.446968090958E+00
  1.455649899503E+00  1.464383798900E+00  1.473170101694E+00  1.482009122304E+00
  1.490901177038E+00  1.499846584100E+00  1.508845663605E+00  1.517898737586E+00
  1.527006130012E+00  1.536168166792E+00  1.545385175793E+00  1.554657486847E+00
  1.563985431768E+00  1.573369344359E+00  1.582809560425E+00  1.592306417788E+00
  1.601860256295E+00  1.611471417832E+00  1.621140246339E+00  1.630867087817E+00
  1.640652290344E+00  1.650496204086E+00  1.660399181311E+00  1.670361576399E+00
  1.680383745857E+00  1.690466048332E+00  1.700608844622E+00  1.710812497690E+00
  1.721077372676E+00  1.731403836912E+00  1.741792259934E+00  1.752243013493E+00
  1.762756471574E+00  1.773333010404E+00  1.783973008466E+00  1.794676846517E+00
  1.805444907596E+00  1.816277577042E+00  1.827175242504E+00  1.838138293959E+00
  1.849167123723E+00  1.860262126465E+00  1.871423699224E+00  1.882652241419E+00
  1.893948154868E+00  1.905311843797E+00  1.916743714860E+00  1.928244177149E+00
  1.939813642212E+00  1.951452524065E+00  1.963161239209E+00  1.974940206644E+00
  1.986789847884E+00  1.998710586972E+00  2.010702850493E+00  2.022767067596E+00
  2.034903670002E+00  2.047113092022E+00  2.059395770574E+00  2.071752145198E+00
  2.084182658069E+00  2.096687754017E+00  2.109267880541E+00  2.121923487825E+00
  2.134655028751E+00  2.147462958924E+00  2.160347736678E+00  2.173309823098E+00
  2.186349682036E+00  2.199467780128E+00  2.212664586809E+00  2.225940574330E+00
  2.239296217776E+00  2.252731995083E+00  2.266248387053E+00  2.279845877375E+00
  2.293524952640E+00  2.307286102356E+00  2.321129818970E+00  2.335056597884E+00
  2.349066937471E+00  2.363161339096E+00  2.377340307130E+00  2.391604348973E+00
  2.405953975067E+00  2.420389698917E+00  2.434912037111E+00  2.449521509333E+00
  2.464218638389E+00  2.479003950220E+00  2.493877973921E+00  2.508841241765E+00
  2.523894289215E+00  2.539037654950E+00  2.554271880880E+00  2.569597512165E+00
  2.585015097238E+00  2.600525187822E+00  2.616128338949E+00  2.631825108983E+00
  2.647616059636E+00  2.663501755994E+00  2.679482766530E+00  2.695559663129E+00
  2.711733021108E+00  2.728003419235E+00  2.744371439750E+00  2.760837668389E+00
  2.777402694399E+00  2.794067110565E+00  2.810831513229E+00  2.827696502308E+00
  2.844662681322E+00  2.861730657410E+00  2.878901041354E+00  2.896174447603E+00
  2.913551494288E+00  2.931032803254E+00  2.948619000073E+00  2.966310714074E+00
  2.984108578358E+00  3.002013229828E+00  3.020025309207E+00  3.038145461063E+00
  3.056374333829E+00  3.074712579832E+00  3.093160855311E+00  3.111719820443E+00
  3.130390139366E+00  3.149172480202E+00  3.168067515083E+00  3.187075920173E+00
  3.206198375695E+00  3.225435565949E+00  3.244788179344E+00  3.264256908420E+00
  3.283842449871E+00  3.303545504570E+00  3.323366777598E+00  3.343306978263E+00
  3.363366820133E+00  3.383547021054E+00  3.403848303180E+00  3.424271392999E+00
  3.444817021357E+00  3.465485923485E+00  3.486278839026E+00  3.507196512060E+00
  3.528239691133E+00  3.549409129279E+00  3.570705584055E+00  3.592129817559E+00
  3.613682596465E+00  3.635364692043E+00  3.657176880196E+00  3.679119941477E+00
  3.701194661126E+00  3.723401829093E+00  3.745742240067E+00  3.768216693507E+00
  3.790825993669E+00  3.813570949631E+00  3.836452375328E+00  3.859471089580E+00
  3.882627916118E+00  3.905923683614E+00  3.929359225716E+00  3.952935381070E+00
  3.976652993357E+00  4.000512911317E+00  4.024515988785E+00  4.048663084718E+00
  4.072955063226E+00  4.097392793605E+00  4.121977150367E+00  4.146709013269E+00
  4.171589267349E+00  4.196618802953E+00  4.221798515771E+00  4.247129306865E+00
  4.272612082706E+00  4.298247755203E+00  4.324037241734E+00  4.349981465184E+00
  4.376081353975E+00  4.402337842099E+00  4.428751869152E+00  4.455324380367E+00
  4.482056326649E+00  4.508948664609E+00  4.536002356596E+00  4.563218370736E+00
  4.590597680960E+00  4.618141267046E+00  4.645850114648E+00  4.673725215336E+00
  4.701767566628E+00  4.729978172028E+00  4.758358041060E+00  4.786908189307E+00
  4.815629638443E+00  4.844523416273E+00  4.873590556771E+00  4.902832100111E+00
  4.932249092712E+00  4.961842587268E+00  4.991613642792E+00  5.021563324649E+00
  5.051692704597E+00  5.082002860824E+00  5.112494877989E+00  5.143169847257E+00
  5.174028866341E+00  5.205073039539E+00  5.236303477776E+00  5.267721298643E+00
  5.299327626434E+00  5.331123592193E+00  5.363110333746E+00  5.395288995749E+00
  5.427660729723E+00  5.460226694102E+00  5.492988054266E+00  5.525945982592E+00
  5.559101658487E+00  5.592456268438E+00  5.626011006049E+00  5.659767072085E+00
  5.693725674518E+00  5.727888028565E+00  5.762255356736E+00  5.796828888877E+00
  5.831609862210E+00  5.866599521383E+00  5.901799118511E+00  5.937209913222E+00
  5.972833172702E+00  6.008670171738E+00  6.044722192768E+00  6.080990525925E+00
  6.117476469081E+00  6.154181327895E+00  6.191106415862E+00  6.228253054358E+00
  6.265622572684E+00  6.303216308120E+00  6.341035605969E+00  6.379081819604E+00
  6.417356310522E+00  6.455860448385E+00  6.494595611075E+00  6.533563184742E+00
  6.572764563850E+00  6.612201151233E+00  6.651874358141E+00  6.691785604290E+00
  6.731936317915E+00  6.772327935823E+00  6.812961903438E+00  6.853839674858E+00
  6.894962712908E+00  6.936332489185E+00  6.977950484120E+00  7.019818187025E+00
  7.061937096147E+00  7.104308718724E+00  7.146934571036E+00  7.189816178462E+00
  7.232955075533E+00  7.276352805986E+00  7.320010922822E+00  7.363930988359E+00
  7.408114574289E+00  7.452563261735E+00  7.497278641306E+00  7.542262313153E+00
  7.587515887032E+00  7.633040982355E+00  7.678839228249E+00  7.724912263618E+00
  7.771261737200E+00  7.817889307623E+00  7.864796643469E+00  7.911985423330E+00
  7.959457335870E+00  8.007214079885E+00  8.055257364364E+00  8.103588908550E+00
  8.152210442002E+00  8.201123704654E+00  8.250330446882E+00  8.299832429563E+00
  8.349631424140E+00  8.399729212685E+00  8.450127587961E+00  8.500828353489E+00
  8.551833323610E+00  8.603144323552E+00  8.654763189493E+00  8.706691768630E+00
  8.758931919242E+00  8.811485510757E+00  8.864354423822E+00  8.917540550365E+00
  8.971045793667E+00  9.024872068429E+00  9.079021300839E+00  9.133495428644E+00
  9.188296401216E+00  9.243426179623E+00  9.298886736701E+00  9.354680057121E+00
  9.410808137464E+00  9.467272986289E+00  9.524076624207E+00  9.581221083952E+00
  9.638708410456E+00  9.696540660918E+00  9.754719904884E+00  9.813248224313E+00
  9.872127713659E+00  9.931360479941E+00  9.990948642821E+00  1.005089433468E+01
  1.011119970069E+01  1.017186689889E+01  1.023289810028E+01  1.029429548888E+01
  1.035606126182E+01  1.041819762939E+01  1.048070681517E+01  1.054359105606E+01
  1.060685260239E+01  1.067049371801E+01  1.073451668032E+01  1.079892378040E+01
  1.086371732308E+01  1.092889962702E+01  1.099447302478E+01  1.106043986293E+01
  1.112680250211E+01  1.119356331712E+01  1.126072469702E+01  1.132828904520E+01
  1.139625877947E+01  1.146463633215E+01  1.153342415014E+01  1.160262469505E+01
  1.167224044322E+01  1.174227388588E+01  1.181272752919E+01  1.188360389437E+01
  1.195490551773E+01  1.202663495084E+01  1.209879476054E+01  1.217138752911E+01
  1.224441585428E+01  1.231788234941E+01  1.239178964350E+01  1.246614038136E+01
  1.254093722365E+01  1.261618284699E+01  1.269187994408E+01  1.276803122374E+01
  1.284463941108E+01  1.292170724755E+01  1.299923749103E+01  1.307723291598E+01
  1.315569631348E+01  1.323463049136E+01  1.331403827431E+01  1.339392250395E+01
  1.347428603898E+01  1.355513175521E+01  1.363646254574E+01  1.371828132102E+01
  1.380059100894E+01  1.388339455499E+01  1.396669492232E+01  1.405049509186E+01
  1.413479806241E+01  1.421960685078E+01  1.430492449189E+01  1.439075403884E+01
  1.447709856307E+01  1.456396115445E+01  1.465134492138E+01  1.473925299091E+01
  1.482768850885E+01  1.491665463991E+01  1.500615456774E+01  1.509619149515E+01
  1.518676864412E+01  1.527788925599E+01  1.536955659152E+01  1.546177393107E+01
  1.555454457466E+01  1.564787184211E+01  1.574175907316E+01  1.583620962760E+01
  1.593122688536E+01  1.602681424668E+01  1.612297513216E+01  1.621971298295E+01
  1.631703126085E+01  1.641493344841E+01  1.651342304910E+01  1.661250358740E+01
  1.671217860892E+01  1.681245168057E+01  1.691332639066E+01  1.701480634900E+01
  1.711689518710E+01  1.721959655822E+01  1.732291413757E+01  1.742685162239E+01
  1.753141273213E+01  1.763660120852E+01  1.774242081577E+01  1.784887534067E+01
  1.795596859271E+01  1.806370440427E+01  1.817208663069E+01  1.828111915048E+01
  1.839080586538E+01  1.850115070057E+01  1.861215760477E+01  1.872383055040E+01
  1.883617353371E+01  1.894919057491E+01  1.906288571836E+01  1.917726303267E+01
  1.929232661086E+01  1.940808057053E+01  1.952452905395E+01  1.964167622828E+01
  1.975952628565E+01  1.987808344336E+01  1.999735194402E+01  2.011733605568E+01
  2.023804007202E+01  2.035946831245E+01  2.048162512232E+01  2.060451487306E+01
  2.072814196230E+01  2.085251081407E+01  2.097762587895E+01  2.110349163423E+01
  2.123011258403E+01  2.135749325954E+01  2.148563821910E+01  2.161455204841E+01
  2.174423936070E+01  2.187470479686E+01  2.200595302565E+01  2.213798874380E+01
  2.227081667626E+01  2.240444157632E+01  2.253886822578E+01  2.267410143513E+01
  2.281014604374E+01  2.294700692001E+01  2.308468896153E+01  2.322319709530E+01
  2.336253627787E+01  2.350271149553E+01  2.364372776451E+01  2.378559013109E+01
  2.392830367188E+01  2.407187349391E+01  2.421630473488E+01  2.436160256328E+01
  2.450777217866E+01  2.465481881174E+01  2.480274772461E+01  2.495156421095E+01
  2.510127359622E+01  2.525188123780E+01  2.540339252522E+01  2.555581288038E+01
  2.570914775766E+01  2.586340264420E+01  2.601858306007E+01  2.617469455843E+01
  2.633174272578E+01  2.648973318213E+01  2.664867158123E+01  2.680856361072E+01
  2.696941499238E+01  2.713123148233E+01  2.729401887123E+01  2.745778298446E+01
  2.762252968236E+01  2.778826486046E+01  2.795499444962E+01  2.812272441632E+01
  2.829146076281E+01  2.846120952739E+01  2.863197678456E+01  2.880376864526E+01
  2.897659125713E+01  2.915045080468E+01  2.932535350951E+01  2.950130563056E+01
  2.967831346435E+01  2.985638334513E+01  3.003552164520E+01  3.021573477507E+01
  3.039702918372E+01  3.057941135883E+01  3.076288782698E+01  3.094746515394E+01
  3.113314994487E+01  3.131994884453E+01  3.150786853760E+01  3.169691574883E+01
  3.188709724332E+01  3.207841982678E+01  3.227089034574E+01  3.246451568782E+01
  3.265930278194E+01  3.285525859863E+01  3.305239015023E+01  3.325070449113E+01
  3.345020871807E+01  3.365090997038E+01  3.385281543020E+01  3.405593232279E+01
  3.426026791672E+01  3.446582952422E+01  3.467262450137E+01  3.488066024838E+01
  3.508994420987E+01  3.530048387513E+01  3.551228677838E+01  3.572536049905E+01
  3.593971266204E+01  3.615535093801E+01  3.637228304364E+01  3.659051674190E+01
  3.681005984235E+01  3.703092020141E+01  3.725310572262E+01  3.747662435695E+01
  3.770148410309E+01  3.792769300771E+01  3.815525916576E+01  3.838419072075E+01
  3.861449586508E+01  3.884618284027E+01  3.907925993731E+01  3.931373549693E+01
  3.954961790992E+01  3.978691561738E+01  4.002563711108E+01  4.026579093375E+01
  4.050738567935E+01  4.075042999342E+01  4.099493257339E+01  4.124090216883E+01
  4.148834758184E+01  4.173727766733E+01  4.198770133333E+01  4.223962754133E+01
  4.249306530658E+01  4.274802369842E+01  4.300451184061E+01  4.326253891166E+01
  4.352211414513E+01  4.378324683000E+01  4.404594631098E+01  4.431022198884E+01
  4.457608332077E+01
</grid-data>
</grid>
<valence-charge total-charge="9" is-unscreening-charge="yes"
 rescaled-to-z-pseudo="no">
<radfunc>
<data npts="797">
  3.215415313322E-02  3.225308650681E-02  3.255057840289E-02  3.304875993456E-02
  3.374358112855E-02  3.465999567994E-02  3.578790559446E-02  3.711818036715E-02
  3.869742168743E-02  4.047604180175E-02  4.248939459078E-02  4.468774921845E-02
  4.717557801756E-02  4.994608898530E-02  5.298009759634E-02  5.624459470493E-02
  5.969192856364E-02  6.325978985813E-02  6.729906819638E-02  7.139067861929E-02
  7.596988492381E-02  8.049842827996E-02  8.550782020660E-02  9.105154091759E-02
  9.638749016815E-02  1.022228209265E-01  1.086067880767E-01  1.155938569600E-01
  1.221083038611E-01  1.291517122453E-01  1.367695943769E-01  1.450116458013E-01
  1.539321454464E-01  1.619267734890E-01  1.704708368777E-01  1.796043977284E-01
  1.893705911602E-01  1.998158586996E-01  2.109901960680E-01  2.229474153418E-01
  2.331156328483E-01  2.438535225063E-01  2.551946306385E-01  2.671744988328E-01
  2.798307683874E-01  2.932032869459E-01  3.073342167256E-01  3.222681436064E-01
  3.380521861844E-01  3.547361037190E-01  3.723724016916E-01  3.910164334657E-01
  4.056957388067E-01  4.210003340774E-01  4.369569074976E-01  4.535931425965E-01
  4.709377324188E-01  4.890203907233E-01  5.078718596813E-01  5.275239135318E-01
  5.480093575965E-01  5.693620219987E-01  5.916167493667E-01  6.148093757367E-01
  6.389767037972E-01  6.641564675393E-01  6.903872872985E-01  7.177086140834E-01
  7.461606619992E-01  7.757843274732E-01  8.066210938926E-01  8.387129201561E-01
  8.721021115346E-01  9.068311711192E-01  9.429426300267E-01  9.678058703418E-01
  9.933148156690E-01  1.019481827212E+00  1.046319125049E+00  1.073838751223E+00
  1.102052530011E+00  1.130972025241E+00  1.160608494498E+00  1.190972840078E+00
  1.222075556540E+00  1.253926674703E+00  1.286535701939E+00  1.319911558619E+00
  1.354062510556E+00  1.388996097317E+00  1.424719056256E+00  1.461237242157E+00
  1.498555542359E+00  1.536677787265E+00  1.575606656160E+00  1.615343578251E+00
  1.655888628913E+00  1.697240421098E+00  1.739395991958E+00  1.782350684700E+00
  1.826098025802E+00  1.870629597711E+00  1.915934907237E+00  1.962001249894E+00
  2.008813570515E+00  2.056354320545E+00  2.104603312493E+00  2.153537572113E+00
  2.203131188981E+00  2.253355166243E+00  2.304177270415E+00  2.355561882231E+00
  2.407469849668E+00  2.459858344393E+00  2.512680723018E+00  2.565886394680E+00
  2.619420696598E+00  2.673224779382E+00  2.727235504024E+00  2.781385352591E+00
  2.835602354764E+00  2.889810032476E+00  2.943927364956E+00  2.997868776563E+00
  3.051544149806E+00  3.104858865959E+00  3.157713875638E+00  3.210005801607E+00
  3.261627075987E+00  3.312466113855E+00  3.362407524971E+00  3.411332365135E+00
  3.435375500300E+00  3.459118428303E+00  3.482545418459E+00  3.505640580210E+00
  3.528387875836E+00  3.550771133812E+00  3.572774062812E+00  3.594380266338E+00
  3.615573257972E+00  3.636336477236E+00  3.656653306036E+00  3.676507085687E+00
  3.695881134481E+00  3.714758765784E+00  3.733123306636E+00  3.750958116825E+00
  3.768246608403E+00  3.784972265609E+00  3.801118665172E+00  3.816669496953E+00
  3.831608584885E+00  3.845919908175E+00  3.859587622722E+00  3.872596082716E+00
  3.884929862366E+00  3.896573777716E+00  3.907512908504E+00  3.917732620013E+00
  3.927218584887E+00  3.935956804837E+00  3.943933632224E+00  3.951135791453E+00
  3.957550400145E+00  3.963164990056E+00  3.967967527682E+00  3.971946434537E+00
  3.975090607059E+00  3.977389436114E+00  3.978832826079E+00  3.979411213465E+00
  3.979115585078E+00  3.977937495686E+00  3.975869085195E+00  3.972903095302E+00
  3.969032885650E+00  3.964252449458E+00  3.958556428647E+00  3.951940128455E+00
  3.944399531562E+00  3.935931311730E+00  3.926532846976E+00  3.916202232294E+00
  3.904938291951E+00  3.892740591364E+00  3.879609448594E+00  3.865545945454E+00
  3.850551938274E+00  3.834630068320E+00  3.817783771876E+00  3.800017290016E+00
  3.781335678037E+00  3.761744814575E+00  3.741251410374E+00  3.719863016685E+00
  3.697588033272E+00  3.674435715972E+00  3.650416183755E+00  3.625540425221E+00
  3.599820304445E+00  3.573268566075E+00  3.545898839578E+00  3.517725642507E+00
  3.488764382644E+00  3.459031358873E+00  3.428543760619E+00  3.397319665657E+00
  3.365378036126E+00  3.332738712521E+00  3.299422405476E+00  3.265450685111E+00
  3.230845967723E+00  3.195631499622E+00  3.159831337865E+00  3.123470327713E+00
  3.086574076585E+00  3.049168924334E+00  3.011281909684E+00  2.972940732668E+00
  2.934173712959E+00  2.895009744008E+00  2.855478242928E+00  2.815609096117E+00
  2.775432600653E+00  2.734979401534E+00  2.694280424897E+00  2.653366807383E+00
  2.612269821906E+00  2.571020800099E+00  2.529651051794E+00  2.488191781944E+00
  2.446674005444E+00  2.405128460373E+00  2.363585520220E+00  2.322075105708E+00
  2.280626596885E+00  2.239268746155E+00  2.198029592995E+00  2.156936381091E+00
  2.116015478659E+00  2.075292302714E+00  2.034791248037E+00  1.994535621465E+00
  1.954547582162E+00  1.914848089021E+00  1.875456856025E+00  1.836392315508E+00
  1.797671590041E+00  1.759310473330E+00  1.721323420446E+00  1.683723593933E+00
  1.646523110764E+00  1.609733396271E+00  1.573365249124E+00  1.537428788204E+00
  1.501933489832E+00  1.466888191980E+00  1.432301104304E+00  1.398179818167E+00
  1.364531317129E+00  1.331361987886E+00  1.298677631615E+00  1.266483475705E+00
  1.234784185829E+00  1.203583878351E+00  1.172886133015E+00  1.142694005904E+00
  1.113010042632E+00  1.083836291747E+00  1.055174318317E+00  1.027025217666E+00
  9.993896292545E-01  9.722677506494E-01  9.456593515917E-01  9.195637881144E-01
  8.939800167017E-01  8.689066084627E-01  8.443417633008E-01  8.202833240576E-01
  7.967287906135E-01  7.736753339261E-01  7.511198099879E-01  7.290587736893E-01
  7.074884925684E-01  6.864049604337E-01  6.658039108459E-01  6.456808304445E-01
  6.260309721087E-01  6.068493679326E-01  5.881308420193E-01  5.698700230678E-01
  5.520613567510E-01  5.346991178737E-01  5.177774223037E-01  5.012902386661E-01
  4.852313997958E-01  4.695946139413E-01  4.543734757130E-01  4.395614767723E-01
  4.251520162562E-01  4.111384109323E-01  3.975139050830E-01  3.842716801131E-01
  3.714048638800E-01  3.589065397441E-01  3.467697553369E-01  3.349875310458E-01
  3.235528682161E-01  3.124587570665E-01  3.016981843224E-01  2.912641405628E-01
  2.811496272844E-01  2.713476636830E-01  2.618512931529E-01  2.526535895066E-01
  2.437476629162E-01  2.351266655791E-01  2.267837971102E-01  2.187123096638E-01
  2.109055127868E-01  2.033567780094E-01  1.960595431731E-01  1.890073165036E-01
  1.821936804293E-01  1.756122951527E-01  1.692569019764E-01  1.631213263915E-01
  1.571994809301E-01  1.514853677898E-01  1.459730812344E-01  1.406568097757E-01
  1.355308381439E-01  1.305895490504E-01  1.258274247504E-01  1.212390484117E-01
  1.168191052939E-01  1.125623837466E-01  1.084637760325E-01  1.045182789802E-01
  1.007209944759E-01  9.706712979846E-02  9.355199780503E-02  9.017101697452E-02
  8.691971131430E-02  8.379371013748E-02  8.078874771677E-02  7.790066282163E-02
  7.512539814470E-02  7.245899962398E-02  6.989761566656E-02  6.743749628011E-02
  6.507499211774E-02  6.280655344195E-02  6.062872901311E-02  5.853816490782E-02
  5.653160327220E-02  5.460588101497E-02  5.275792844523E-02  5.098476785919E-02
  4.928351208029E-02  4.765136295677E-02  4.608560982059E-02  4.458362791125E-02
  4.314287676815E-02  4.176089859464E-02  4.043531659696E-02  3.916383330087E-02
  3.794422884897E-02  3.677435928123E-02  3.565215480126E-02  3.457561803099E-02
  3.354282225609E-02  3.255190966444E-02  3.160108958044E-02  3.068863669718E-02
  2.981288930946E-02  2.897224755002E-02  2.816517163189E-02  2.739018009982E-02
  2.664584809371E-02  2.593080562750E-02  2.524373588667E-02  2.458337354795E-02
  2.394850312484E-02  2.333795734246E-02  2.275061554529E-02  2.218540214138E-02
  2.164128508603E-02  2.111727440814E-02  2.061242078153E-02  2.012581414352E-02
  1.965658236193E-02  1.920388995163E-02  1.876693684054E-02  1.834495718464E-02
  1.793721823054E-02  1.754301922392E-02  1.716169036104E-02  1.679259178065E-02
  1.643511259270E-02  1.608866994047E-02  1.575270809256E-02  1.542669756110E-02
  1.511013424292E-02  1.480253858075E-02  1.450345474173E-02  1.421244981110E-02
  1.392911299935E-02  1.365305486173E-02  1.338390652906E-02  1.312131894978E-02
  1.286496214301E-02  1.261452446296E-02  1.236971187520E-02  1.213024724539E-02
  1.189586964131E-02  1.166633364894E-02  1.144140870339E-02  1.122087843543E-02
  1.100454003445E-02  1.079220362822E-02  1.058369168018E-02  1.037883840451E-02
  1.017748919925E-02  9.979500097760E-03  9.784737238308E-03  9.593076352006E-03
  9.404402268708E-03  9.218608440724E-03  9.035596484004E-03  8.855275736378E-03
  8.677562832413E-03  8.502381294388E-03  8.329661138833E-03  8.159338498094E-03
  7.991355256320E-03  7.825658699298E-03  7.662201177538E-03  7.500939782035E-03
  7.341836032131E-03  7.184855574942E-03  7.029967895826E-03  6.877146039424E-03
  6.726366340807E-03  6.577608166351E-03  6.430853663971E-03  6.286087522407E-03
  6.143296739298E-03  6.002470397836E-03  5.863599451825E-03  5.726676519024E-03
  5.591695682687E-03  5.458652301254E-03  5.327542826168E-03  5.198364627828E-03
  5.071115829710E-03  4.945795150675E-03  4.822401755524E-03  4.700935113829E-03
  4.581394867091E-03  4.463780704228E-03  4.348092245421E-03  4.234328934290E-03
  4.122489938367E-03  4.012574057806E-03  3.904579642221E-03  3.798504515557E-03
  3.694345908812E-03  3.592100400455E-03  3.491763864314E-03  3.393331424717E-03
  3.296797418612E-03  3.202155364408E-03  3.109397937221E-03  3.018516950229E-03
  2.929503341806E-03  2.842347168101E-03  2.757037600730E-03  2.673562929227E-03
  2.591910567978E-03  2.512067066996E-03  2.434018126794E-03  2.357748616423E-03
  2.283242594650E-03  2.210483333901E-03  2.139453346657E-03  2.070134414017E-03
  2.002507616135E-03  1.936553364260E-03  1.872251434141E-03  1.809581000523E-03
  1.748520672532E-03  1.689048529727E-03  1.631142158605E-03  1.574778689392E-03
  1.519934832933E-03  1.466586917531E-03  1.414710925572E-03  1.364282529830E-03
  1.315277129300E-03  1.267669884473E-03  1.221435751934E-03  1.176549518219E-03
  1.132985832828E-03  1.090719240345E-03  1.049724211600E-03  1.009975173816E-03
  9.714465397152E-04  9.341127355348E-04  8.979482279302E-04  8.629275497506E-04
  8.290253246647E-04  7.962162906334E-04  7.644753222231E-04  7.337774517626E-04
  7.040978893495E-04  6.754120417151E-04  6.476955299626E-04  6.209242061952E-04
  5.950741690537E-04  5.701217781860E-04  5.460436676746E-04  5.228167584476E-04
  5.004182697023E-04  4.788257293723E-04  4.580169836682E-04  4.379702057253E-04
  4.186639033910E-04  4.000769261853E-04  3.821884714695E-04  3.649780898557E-04
  3.484256898932E-04  3.325115420640E-04  3.172162821227E-04  3.025209138134E-04
  2.884068109958E-04  2.748557192141E-04  2.618497567382E-04  2.493714151090E-04
  2.374035592160E-04  2.259294269372E-04  2.149326283670E-04  2.043971446593E-04
  1.943073265109E-04  1.846478923083E-04  1.754039259621E-04  1.665608744488E-04
  1.581045450818E-04  1.500211025300E-04  1.422970656027E-04  1.349193038166E-04
  1.278750337624E-04  1.211518152846E-04  1.147375474891E-04  1.086204645906E-04
  1.027891316134E-04  9.723243995560E-05  9.193960282762E-05  8.690015057489E-05
  8.210392589403E-05  7.754107895083E-05  7.320206240844E-05  6.907762637321E-05
  6.515881326550E-05  6.143695262246E-05  5.790365583915E-05  5.455081085457E-05
  5.137057678860E-05  4.835537853579E-05  4.549790132186E-05  4.279108522846E-05
  4.022811969196E-05  3.780243798151E-05  3.550771166206E-05  3.333784504752E-05
  3.128696964946E-05  2.934943862676E-05  2.751982124126E-05  2.579289732481E-05