Rb    ONCVPSP-4.0.1  r_core=   1.70061   1.70061   1.70061   1.70061
37.0000      9.0000      220131    zatom,zion,pspd
8      11   3     4   600     0    pspcod,pspxc,lmax,lloc,mmax,r2well
5.99000000  7.00000000  0.00000000    rchrg fchrg qchrg
2     2     2     1     0    nproj
1     1           extension_switch
0                         8.2027110220894E+00 -4.4967661629837E-01
1  0.0000000000000E+00  5.1492249353302E-10  2.2500024135508E-09
2  1.0000000000000E-02  5.6810520782522E-02 -8.5172462998449E-03
3  2.0000000000000E-02  1.1356621478223E-01 -1.6889474967002E-02
4  3.0000000000000E-02  1.7021184439713E-01 -2.4974020348313E-02
5  4.0000000000000E-02  2.2669135892449E-01 -3.2632883044200E-02
6  5.0000000000000E-02  2.8294750922044E-01 -3.9734969356383E-02
7  6.0000000000000E-02  3.3892148743912E-01 -4.6158219948710E-02
8  7.0000000000000E-02  3.9455259959619E-01 -5.1791593478788E-02
9  8.0000000000000E-02  4.4977797818680E-01 -5.6536873208084E-02
10  9.0000000000000E-02  5.0453234145926E-01 -6.0310267345412E-02
11  1.0000000000000E-01  5.5874780521301E-01 -6.3043777081294E-02
12  1.1000000000000E-01  6.1235375216351E-01 -6.4686309879655E-02
13  1.2000000000000E-01  6.6527676301056E-01 -6.5204519553380E-02
14  1.3000000000000E-01  7.1744061237431E-01 -6.4583358900894E-02
15  1.4000000000000E-01  7.6876633173865E-01 -6.2826335157226E-02
16  1.5000000000000E-01  8.1917234048226E-01 -5.9955463146201E-02
17  1.6000000000000E-01  8.6857464499735E-01 -5.6010915739545E-02
18  1.7000000000000E-01  9.1688710481395E-01 -5.1050375961863E-02
19  1.8000000000000E-01  9.6402176357771E-01 -4.5148099754278E-02
20  1.9000000000000E-01  1.0098892416897E+00 -3.8393702953230E-02
21  2.0000000000000E-01  1.0543991864226E+00 -3.0890690383644E-02
22  2.1000000000000E-01  1.0974607743953E+00 -2.2754749041795E-02
23  2.2000000000000E-01  1.1389832604275E+00 -1.4111831088478E-02
24  2.3000000000000E-01  1.1788765660296E+00 -5.0960557313898E-03
25  2.4000000000000E-01  1.2170519001089E+00  4.1525380068737E-03
26  2.5000000000000E-01  1.2534224039181E+00  1.3490353205601E-02
27  2.6000000000000E-01  1.2879038118255E+00  2.2772675308351E-02
28  2.7000000000000E-01  1.3204151191756E+00  3.1856153035580E-02
29  2.8000000000000E-01  1.3508792483196E+00  4.0601281469835E-02
30  2.9000000000000E-01  1.3792237038445E+00  4.8874848642605E-02
31  3.0000000000000E-01  1.4053812081104E+00  5.6552307349402E-02
32  3.1000000000000E-01  1.4292903084189E+00  6.3520034904223E-02
33  3.2000000000000E-01  1.4508959474780E+00  6.9677445102083E-02
34  3.3000000000000E-01  1.4701499892982E+00  7.4938918765593E-02
35  3.4000000000000E-01  1.4870116932345E+00  7.9235521878219E-02
36  3.5000000000000E-01  1.5014481295840E+00  8.2516483413073E-02
37  3.6000000000000E-01  1.5134345309366E+00  8.4750408506410E-02
38  3.7000000000000E-01  1.5229545743491E+00  8.5926206545694E-02
39  3.8000000000000E-01  1.5300005903646E+00  8.6053717984108E-02
40  3.9000000000000E-01  1.5345736958953E+00  8.5164028193859E-02
41  4.0000000000000E-01  1.5366838490422E+00  8.3309461360871E-02
42  4.1000000000000E-01  1.5363498249919E+00  8.0563252231661E-02
43  4.2000000000000E-01  1.5335991132168E+00  7.7018898379803E-02
44  4.3000000000000E-01  1.5284677372824E+00  7.2789200486179E-02
45  4.4000000000000E-01  1.5209999996213E+00  6.8005002855030E-02
46  4.5000000000000E-01  1.5112481546469E+00  6.2813650942219E-02
47  4.6000000000000E-01  1.4992720145483E+00  5.7377186984628E-02
48  4.7000000000000E-01  1.4851384929996E+00  5.1870308824356E-02
49  4.8000000000000E-01  1.4689210928315E+00  4.6478120656551E-02
50  4.9000000000000E-01  1.4506993444363E+00  4.1393707640544E-02
51  5.0000000000000E-01  1.4305582022909E+00  3.6815569049583E-02
52  5.1000000000000E-01  1.4085874074888E+00  3.2944946853902E-02
53  5.2000000000000E-01  1.3848808245545E+00  2.9983088299903E-02
54  5.3000000000000E-01  1.3595357610710E+00  2.8128482138269E-02
55  5.4000000000000E-01  1.3326522787822E+00  2.7574108649255E-02
56  5.5000000000000E-01  1.3043325048268E+00  2.8504743504964E-02
57  5.6000000000000E-01  1.2746799516312E+00  3.1094354796747E-02
58  5.7000000000000E-01  1.2437988537291E+00  3.5503631251198E-02
59  5.8000000000000E-01  1.2117935293924E+00  4.1877677778681E-02
60  5.9000000000000E-01  1.1787677744594E+00  5.0343912071919E-02
61  6.0000000000000E-01  1.1448242951417E+00  6.1010193034868E-02
62  6.1000000000000E-01  1.1100641858828E+00  7.3963208416752E-02
63  6.2000000000000E-01  1.0745864575503E+00  8.9267145204958E-02
64  6.3000000000000E-01  1.0384876203786E+00  1.0696266214947E-01
65  6.4000000000000E-01  1.0018613251492E+00  1.2706617931463E-01
66  6.5000000000000E-01  9.6479806512405E-01  1.4956949484769E-01
67  6.6000000000000E-01  9.2738494024583E-01  1.7443973429036E-01
68  6.7000000000000E-01  8.8970548409807E-01  2.0161963281106E-01
69  6.8000000000000E-01  8.5183955310596E-01  2.3102814577908E-01
70  6.9000000000000E-01  8.1386327645802E-01  2.6256137821108E-01
71  7.0000000000000E-01  7.7584906426526E-01  2.9609381887030E-01
72  7.1000000000000E-01  7.3786567055837E-01  3.3147986026231E-01
73  7.2000000000000E-01  6.9997830687065E-01  3.6855558151775E-01
74  7.3000000000000E-01  6.6224880137773E-01  4.0714076724522E-01
75  7.4000000000000E-01  6.2473579787802E-01  4.4704113194124E-01
76  7.5000000000000E-01  5.8749498830913E-01  4.8805071650680E-01
77  7.6000000000000E-01  5.5057937201647E-01  5.2995442089381E-01
78  7.7000000000000E-01  5.1403953462694E-01  5.7253063492635E-01
79  7.8000000000000E-01  4.7792393913970E-01  6.1555392794252E-01
80  7.9000000000000E-01  4.4227922173035E-01  6.5879775710623E-01
81  8.0000000000000E-01  4.0715048477720E-01  7.0203715405599E-01
82  8.1000000000000E-01  3.7258157975776E-01  7.4505134999569E-01
83  8.2000000000000E-01  3.3861537292831E-01  7.8762630038259E-01
84  8.3000000000000E-01  3.0529398708479E-01  8.2955707201702E-01
85  8.4000000000000E-01  2.7265901320384E-01  8.7065005756142E-01
86  8.5000000000000E-01  2.4075168637006E-01  9.1072498528104E-01
87  8.6000000000000E-01  2.0961302110017E-01  9.4961669506262E-01
88  8.7000000000000E-01  1.7928390196562E-01  9.8717665548250E-01
89  8.8000000000000E-01  1.4980512627916E-01  1.0232742008045E+00
90  8.9000000000000E-01  1.2121739653556E-01  1.0577974712297E+00
91  9.0000000000000E-01  9.3561261265340E-02  1.0906540444256E+00
92  9.1000000000000E-01  6.6877003959670E-02  1.1217712512607E+00
93  9.2000000000000E-01  4.1204480736857E-02  1.1510961736853E+00
94  9.3000000000000E-01  1.6582908430724E-02  1.1785953277564E+00
95  9.4000000000000E-01 -6.9493942278618E-03  1.2042540398216E+00
96  9.5000000000000E-01 -2.9355308709128E-02  1.2280755287802E+00
97  9.6000000000000E-01 -5.0599257529827E-02  1.2500797120516E+00
98  9.7000000000000E-01 -7.0647578473721E-02  1.2703017573244E+00
99  9.8000000000000E-01 -8.9468926054482E-02  1.2887904062759E+00
100  9.9000000000000E-01 -1.0703469342025E-01  1.3056061001587E+00
101  1.0000000000000E+00 -1.2331944733491E-01  1.3208189404060E+00
102  1.0100000000000E+00 -1.3830136842001E-01  1.3345065201494E+00
103  1.0200000000000E+00 -1.5196268851270E-01  1.3467516647288E+00
104  1.0300000000000E+00 -1.6429011679431E-01  1.3576401208660E+00
105  1.0400000000000E+00 -1.7527524627675E-01  1.3672582351501E+00
106  1.0500000000000E+00 -1.8491493230152E-01  1.3756906628165E+00
107  1.0600000000000E+00 -1.9321163491062E-01  1.3830181474874E+00
108  1.0700000000000E+00 -2.0017371728611E-01  1.3893154115875E+00
109  1.0800000000000E+00 -2.0581569292661E-01  1.3946491955479E+00
110  1.0900000000000E+00 -2.1015841482205E-01  1.3990764817066E+00
111  1.1000000000000E+00 -2.1322920060489E-01  1.4026429360086E+00
112  1.1100000000000E+00 -2.1506188847630E-01  1.4053815972723E+00
113  1.1200000000000E+00 -2.1569681963112E-01  1.4073118399287E+00
114  1.1300000000000E+00 -2.1518074391100E-01  1.4084386318564E+00
115  1.1400000000000E+00 -2.1356664649997E-01  1.4087521042373E+00
116  1.1500000000000E+00 -2.1091349461371E-01  1.4082274453708E+00
117  1.1600000000000E+00 -2.0728590432049E-01  1.4068251251117E+00
118  1.1700000000000E+00 -2.0275372883736E-01  1.4044914511953E+00
119  1.1800000000000E+00 -1.9739157087005E-01  1.4011594531664E+00
120  1.1900000000000E+00 -1.9127822277198E-01  1.3967500841251E+00
121  1.2000000000000E+00 -1.8449603949286E-01  1.3911737250069E+00
122  1.2100000000000E+00 -1.7713025043005E-01  1.3843319708192E+00
123  1.2200000000000E+00 -1.6926821739079E-01  1.3761196731499E+00
124  1.2300000000000E+00 -1.6099864689057E-01  1.3664272084738E+00
125  1.2400000000000E+00 -1.5241076594220E-01  1.3551429373800E+00
126  1.2500000000000E+00 -1.4359347132251E-01  1.3421558158478E+00
127  1.2600000000000E+00 -1.3463446301521E-01  1.3273581162539E+00
128  1.2700000000000E+00 -1.2561937311944E-01  1.3106482128698E+00
129  1.2800000000000E+00 -1.1663090196643E-01  1.2919333843192E+00
130  1.2900000000000E+00 -1.0774797349469E-01  1.2711325838188E+00
131  1.3000000000000E+00 -9.9044922092291E-02  1.2481791270701E+00
132  1.3100000000000E+00 -9.0590723113959E-02  1.2230232474212E+00
133  1.3200000000000E+00 -8.2448279119942E-02  1.1956344684114E+00
134  1.3300000000000E+00 -7.4673773560152E-02  1.1660037450321E+00
135  1.3400000000000E+00 -6.7316103136734E-02  1.1341453270171E+00
136  1.3500000000000E+00 -6.0416399425716E-02  1.1000983001882E+00
137  1.3600000000000E+00 -5.4007649525637E-02  1.0639277653118E+00
138  1.3700000000000E+00 -4.8114424525352E-02  1.0257256180780E+00
139  1.3800000000000E+00 -4.2752723455085E-02  9.8561089863806E-01
140  1.3900000000000E+00 -3.7929939106344E-02  9.4372968462252E-01
141  1.4000000000000E+00 -3.3644950684223E-02  9.0025450765188E-01
142  1.4100000000000E+00 -2.9888346697387E-02  8.5538328002479E-01
143  1.4200000000000E+00 -2.6642779795402E-02  8.0933772549701E-01
144  1.4300000000000E+00 -2.3883453452712E-02  7.6236131574983E-01
145  1.4400000000000E+00 -2.1578738465117E-02  7.1471672230446E-01
146  1.4500000000000E+00 -1.9690915181116E-02  6.6668280219826E-01
147  1.4600000000000E+00 -1.8177035253362E-02  6.1855114461501E-01
148  1.4700000000000E+00 -1.6989894441392E-02  5.7062221493146E-01
149  1.4800000000000E+00 -1.6079105671689E-02  5.2320114209897E-01
150  1.4900000000000E+00 -1.5392259135583E-02  4.7659320502292E-01
151  1.5000000000000E+00 -1.4876153700381E-02  4.3109908352904E-01
152  1.5100000000000E+00 -1.4478081321491E-02  3.8700994960679E-01
153  1.5200000000000E+00 -1.4147143472284E-02  3.4460248487666E-01
154  1.5300000000000E+00 -1.3835575869539E-02  3.0413392056532E-01
155  1.5400000000000E+00 -1.3500054926031E-02  2.6583720681478E-01
156  1.5500000000000E+00 -1.3102956456437E-02  2.2991642870128E-01
157  1.5600000000000E+00 -1.2613534150067E-02  1.9654259705795E-01
158  1.5700000000000E+00 -1.2008982219655E-02  1.6584995300431E-01
159  1.5800000000000E+00 -1.1275343424651E-02  1.3793293602482E-01
160  1.5900000000000E+00 -1.0408219308575E-02  1.1284397734500E-01
161  1.6000000000000E+00 -9.4132473267440E-03  9.0592283288577E-02
162  1.6100000000000E+00 -8.3062497953738E-03  7.1143821113000E-02
163  1.6200000000000E+00 -7.1135320917417E-03  5.4422326527499E-02
164  1.6300000000000E+00 -5.8729186112934E-03  4.0310504484388E-02
165  1.6400000000000E+00 -4.6279711360376E-03  2.8658586673792E-02
166  1.6500000000000E+00 -3.4282725840672E-03  1.9290458848285E-02
167  1.6600000000000E+00 -2.3282112646495E-03  1.2011967335683E-02
168  1.6700000000000E+00 -1.3841355139301E-03  6.6223792982924E-03
169  1.6800000000000E+00 -6.5088301884628E-04  2.9288678749274E-03
170  1.6900000000000E+00 -1.7667909438444E-04  7.6087469495630E-04
171  1.7000000000000E+00 -3.1546292458013E-06  1.3038163695809E-05
172  1.7100000000000E+00  1.3672569023840E-06 -5.6018422256000E-06
173  1.7200000000000E+00 -6.9257135624023E-07  2.8844120931739E-06
174  1.73  0. -0.
175  1.74  0.  0.
176  1.75  0.  0.
177  1.76  0.  0.
178  1.77  0.  0.
179  1.78  0.  0.
180  1.79  0.  0.
181  1.80  0.  0.
182  1.81  0.  0.
183  1.82  0.  0.
184  1.83  0.  0.
185  1.84  0.  0.
186  1.85  0.  0.
187  1.86  0.  0.
188  1.87  0.  0.
189  1.88  0.  0.
190  1.89  0.  0.
191  1.90  0.  0.
192  1.91  0.  0.
193  1.92  0.  0.
194  1.93  0.  0.
195  1.94  0.  0.
196  1.95  0.  0.
197  1.96  0.  0.
198  1.97  0.  0.
199  1.98  0.  0.
200  1.99  0.  0.
201  2.00  0.  0.
202  2.01  0.  0.
203  2.02  0.  0.
204  2.03  0.  0.
205  2.04  0.  0.
206  2.05  0.  0.
207  2.06  0.  0.
208  2.07  0.  0.
209  2.08  0.  0.
210  2.09  0.  0.
211  2.10  0.  0.
212  2.11  0.  0.
213  2.12  0.  0.
214  2.13  0.  0.
215  2.14  0.  0.
216  2.15  0.  0.
217  2.16  0.  0.
218  2.17  0.  0.
219  2.18  0.  0.
220  2.19  0.  0.
221  2.20  0.  0.
222  2.21  0.  0.
223  2.22  0.  0.
224  2.23  0.  0.
225  2.24  0.  0.
226  2.25  0.  0.
227  2.26  0.  0.
228  2.27  0.  0.
229  2.28  0.  0.
230  2.29  0.  0.
231  2.30  0.  0.
232  2.31  0.  0.
233  2.32  0.  0.
234  2.33  0.  0.
235  2.34  0.  0.
236  2.35  0.  0.
237  2.36  0.  0.
238  2.37  0.  0.
239  2.38  0.  0.
240  2.39  0.  0.
241  2.40  0.  0.
242  2.41  0.  0.
243  2.42  0.  0.
244  2.43  0.  0.
245  2.44  0.  0.
246  2.45  0.  0.
247  2.46  0.  0.
248  2.47  0.  0.
249  2.48  0.  0.
250  2.49  0.  0.
251  2.50  0.  0.
252  2.51  0.  0.
253  2.52  0.  0.
254  2.53  0.  0.
255  2.54  0.  0.
256  2.55  0.  0.
257  2.56  0.  0.
258  2.57  0.  0.
259  2.58  0.  0.
260  2.59  0.  0.
261  2.60  0.  0.
262  2.61  0.  0.
263  2.62  0.  0.
264  2.63  0.  0.
265  2.64  0.  0.
266  2.65  0.  0.
267  2.66  0.  0.
268  2.67  0.  0.
269  2.68  0.  0.
270  2.69  0.  0.
271  2.70  0.  0.
272  2.71  0.  0.
273  2.72  0.  0.
274  2.73  0.  0.
275  2.74  0.  0.
276  2.75  0.  0.
277  2.76  0.  0.
278  2.77  0.  0.
279  2.78  0.  0.
280  2.79  0.  0.
281  2.80  0.  0.
282  2.81  0.  0.
283  2.82  0.  0.
284  2.83  0.  0.
285  2.84  0.  0.
286  2.85  0.  0.
287  2.86  0.  0.
288  2.87  0.  0.
289  2.88  0.  0.
290  2.89  0.  0.
291  2.90  0.  0.
292  2.91  0.  0.
293  2.92  0.  0.
294  2.93  0.  0.
295  2.94  0.  0.
296  2.95  0.  0.
297  2.96  0.  0.
298  2.97  0.  0.
299  2.98  0.  0.
300  2.99  0.  0.
301  3.00  0.  0.
302  3.01  0.  0.
303  3.02  0.  0.
304  3.03  0.  0.
305  3.04  0.  0.
306  3.05  0.  0.
307  3.06  0.  0.
308  3.07  0.  0.
309  3.08  0.  0.
310  3.09  0.  0.
311  3.10  0.  0.
312  3.11  0.  0.
313  3.12  0.  0.
314  3.13  0.  0.
315  3.14  0.  0.
316  3.15  0.  0.
317  3.16  0.  0.
318  3.17  0.  0.
319  3.18  0.  0.
320  3.19  0.  0.
321  3.20  0.  0.
322  3.21  0.  0.
323  3.22  0.  0.
324  3.23  0.  0.
325  3.24  0.  0.
326  3.25  0.  0.
327  3.26  0.  0.
328  3.27  0.  0.
329  3.28  0.  0.
330  3.29  0.  0.
331  3.30  0.  0.
332  3.31  0.  0.
333  3.32  0.  0.
334  3.33  0.  0.
335  3.34  0.  0.
336  3.35  0.  0.
337  3.36  0.  0.
338  3.37  0.  0.
339  3.38  0.  0.
340  3.39  0.  0.
341  3.40  0.  0.
342  3.41  0.  0.
343  3.42  0.  0.
344  3.43  0.  0.
345  3.44  0.  0.
346  3.45  0.  0.
347  3.46  0.  0.
348  3.47  0.  0.
349  3.48  0.  0.
350  3.49  0.  0.
351  3.50  0.  0.
352  3.51  0.  0.
353  3.52  0.  0.
354  3.53  0.  0.
355  3.54  0.  0.
356  3.55  0.  0.
357  3.56  0.  0.
358  3.57  0.  0.
359  3.58  0.  0.
360  3.59  0.  0.
361  3.60  0.  0.
362  3.61  0.  0.
363  3.62  0.  0.
364  3.63  0.  0.
365  3.64  0.  0.
366  3.65  0.  0.
367  3.66  0.  0.
368  3.67  0.  0.
369  3.68  0.  0.
370  3.69  0.  0.
371  3.70  0.  0.
372  3.71  0.  0.
373  3.72  0.  0.
374  3.73  0.  0.
375  3.74  0.  0.
376  3.75  0.  0.
377  3.76  0.  0.
378  3.77  0.  0.
379  3.78  0.  0.
380  3.79  0.  0.
381  3.80  0.  0.
382  3.81  0.  0.
383  3.82  0.  0.
384  3.83  0.  0.
385  3.84  0.  0.
386  3.85  0.  0.
387  3.86  0.  0.
388  3.87  0.  0.
389  3.88  0.  0.
390  3.89  0.  0.
391  3.90  0.  0.
392  3.91  0.  0.
393  3.92  0.  0.
394  3.93  0.  0.
395  3.94  0.  0.
396  3.95  0.  0.
397  3.96  0.  0.
398  3.97  0.  0.
399  3.98  0.  0.
400  3.99  0.  0.
401  4.00  0.  0.
402  4.01  0.  0.
403  4.02  0.  0.
404  4.03  0.  0.
405  4.04  0.  0.
406  4.05  0.  0.
407  4.06  0.  0.
408  4.07  0.  0.
409  4.08  0.  0.
410  4.09  0.  0.
411  4.10  0.  0.
412  4.11  0.  0.
413  4.12  0.  0.
414  4.13  0.  0.
415  4.14  0.  0.
416  4.15  0.  0.
417  4.16  0.  0.
418  4.17  0.  0.
419  4.18  0.  0.
420  4.19  0.  0.
421  4.20  0.  0.
422  4.21  0.  0.
423  4.22  0.  0.
424  4.23  0.  0.
425  4.24  0.  0.
426  4.25  0.  0.
427  4.26  0.  0.
428  4.27  0.  0.
429  4.28  0.  0.
430  4.29  0.  0.
431  4.30  0.  0.
432  4.31  0.  0.
433  4.32  0.  0.
434  4.33  0.  0.
435  4.34  0.  0.
436  4.35  0.  0.
437  4.36  0.  0.
438  4.37  0.  0.
439  4.38  0.  0.
440  4.39  0.  0.
441  4.40  0.  0.
442  4.41  0.  0.
443  4.42  0.  0.
444  4.43  0.  0.
445  4.44  0.  0.
446  4.45  0.  0.
447  4.46  0.  0.
448  4.47  0.  0.
449  4.48  0.  0.
450  4.49  0.  0.
451  4.50  0.  0.
452  4.51  0.  0.
453  4.52  0.  0.
454  4.53  0.  0.
455  4.54  0.  0.
456  4.55  0.  0.
457  4.56  0.  0.
458  4.57  0.  0.
459  4.58  0.  0.
460  4.59  0.  0.
461  4.60  0.  0.
462  4.61  0.  0.
463  4.62  0.  0.
464  4.63  0.  0.
465  4.64  0.  0.
466  4.65  0.  0.
467  4.66  0.  0.
468  4.67  0.  0.
469  4.68  0.  0.
470  4.69  0.  0.
471  4.70  0.  0.
472  4.71  0.  0.
473  4.72  0.  0.
474  4.73  0.  0.
475  4.74  0.  0.
476  4.75  0.  0.
477  4.76  0.  0.
478  4.77  0.  0.
479  4.78  0.  0.
480  4.79  0.  0.
481  4.80  0.  0.
482  4.81  0.  0.
483  4.82  0.  0.
484  4.83  0.  0.
485  4.84  0.  0.
486  4.85  0.  0.
487  4.86  0.  0.
488  4.87  0.  0.
489  4.88  0.  0.
490  4.89  0.  0.
491  4.90  0.  0.
492  4.91  0.  0.
493  4.92  0.  0.
494  4.93  0.  0.
495  4.94  0.  0.
496  4.95  0.  0.
497  4.96  0.  0.
498  4.97  0.  0.
499  4.98  0.  0.
500  4.99  0.  0.
501  5.00  0.  0.
502  5.01  0.  0.
503  5.02  0.  0.
504  5.03  0.  0.
505  5.04  0.  0.
506  5.05  0.  0.
507  5.06  0.  0.
508  5.07  0.  0.
509  5.08  0.  0.
510  5.09  0.  0.
511  5.10  0.  0.
512  5.11  0.  0.
513  5.12  0.  0.
514  5.13  0.  0.
515  5.14  0.  0.
516  5.15  0.  0.
517  5.16  0.  0.
518  5.17  0.  0.
519  5.18  0.  0.
520  5.19  0.  0.
521  5.20  0.  0.
522  5.21  0.  0.
523  5.22  0.  0.
524  5.23  0.  0.
525  5.24  0.  0.
526  5.25  0.  0.
527  5.26  0.  0.
528  5.27  0.  0.
529  5.28  0.  0.
530  5.29  0.  0.
531  5.30  0.  0.
532  5.31  0.  0.
533  5.32  0.  0.
534  5.33  0.  0.
535  5.34  0.  0.
536  5.35  0.  0.
537  5.36  0.  0.
538  5.37  0.  0.
539  5.38  0.  0.
540  5.39  0.  0.
541  5.40  0.  0.
542  5.41  0.  0.
543  5.42  0.  0.
544  5.43  0.  0.
545  5.44  0.  0.
546  5.45  0.  0.
547  5.46  0.  0.
548  5.47  0.  0.
549  5.48  0.  0.
550  5.49  0.  0.
551  5.50  0.  0.
552  5.51  0.  0.
553  5.52  0.  0.
554  5.53  0.  0.
555  5.54  0.  0.
556  5.55  0.  0.
557  5.56  0.  0.
558  5.57  0.  0.
559  5.58  0.  0.
560  5.59  0.  0.
561  5.60  0.  0.
562  5.61  0.  0.
563  5.62  0.  0.
564  5.63  0.  0.
565  5.64  0.  0.
566  5.65  0.  0.
567  5.66  0.  0.
568  5.67  0.  0.
569  5.68  0.  0.
570  5.69  0.  0.
571  5.70  0.  0.
572  5.71  0.  0.
573  5.72  0.  0.
574  5.73  0.  0.
575  5.74  0.  0.
576  5.75  0.  0.
577  5.76  0.  0.
578  5.77  0.  0.
579  5.78  0.  0.
580  5.79  0.  0.
581  5.80  0.  0.
582  5.81  0.  0.
583  5.82  0.  0.
584  5.83  0.  0.
585  5.84  0.  0.
586  5.85  0.  0.
587  5.86  0.  0.
588  5.87  0.  0.
589  5.88  0.  0.
590  5.89  0.  0.
591  5.90  0.  0.
592  5.91  0.  0.
593  5.92  0.  0.
594  5.93  0.  0.
595  5.94  0.  0.
596  5.95  0.  0.
597  5.96  0.  0.
598  5.97  0.  0.
599  5.98  0.  0.
600  5.99  0.  0.
1                         2.8838574412016E+00 -4.0798412137888E-01
1  0.0000000000000E+00  1.0557345470064E-08  9.6670247893855E-09
2  1.0000000000000E-02  1.5896047512308E-03  5.6007286893584E-05
3  2.0000000000000E-02  6.3440615894932E-03  2.1671391001401E-04
4  3.0000000000000E-02  1.4220575722853E-02  4.6040312399861E-04
5  4.0000000000000E-02  2.5148740899498E-02  7.5163759866655E-04
6  5.0000000000000E-02  3.9031894597730E-02  1.0423745086961E-03
7  6.0000000000000E-02  5.5748971004933E-02  1.2734856296417E-03
8  7.0000000000000E-02  7.5156808739969E-02  1.3766426289795E-03
9  8.0000000000000E-02  9.7092859716107E-02  1.2765180738429E-03
10  9.0000000000000E-02  1.2137823623532E-01  8.9324423445563E-04
11  1.0000000000000E-01  1.4782102556784E-01  1.4506475556600E-04
12  1.1000000000000E-01  1.7621979508804E-01 -1.0488911259309E-03
13  1.2000000000000E-01  2.0636720665540E-01 -2.7657857819645E-03
14  1.3000000000000E-01  2.3805365645305E-01 -5.0762775730819E-03
15  1.4000000000000E-01  2.7107085598799E-01 -8.0418280630928E-03
16  1.5000000000000E-01  3.0521527143178E-01 -1.1712185714573E-02
17  1.6000000000000E-01  3.4029134190972E-01 -1.6123115834972E-02
18  1.7000000000000E-01  3.7611440265461E-01 -2.1294440885777E-02
19  1.8000000000000E-01  4.1251324601008E-01 -2.7228447957258E-02
20  1.9000000000000E-01  4.4933226193840E-01 -3.3908711417761E-02
21  2.0000000000000E-01  4.8643310976183E-01 -4.1299368675354E-02
22  2.1000000000000E-01  5.2369588411444E-01 -4.9344875878631E-02
23  2.2000000000000E-01  5.6101975024538E-01 -5.7970258497092E-02
24  2.3000000000000E-01  5.9832303661396E-01 -6.7081859344927E-02
25  2.4000000000000E-01  6.3554278585586E-01 -7.6568574043662E-02
26  2.5000000000000E-01  6.7263377837310E-01 -8.6303551465077E-02
27  2.6000000000000E-01  7.0956705570045E-01 -9.6146324660704E-02
28  2.7000000000000E-01  7.4632798312525E-01 -1.0594532646658E-01
29  2.8000000000000E-01  7.8291390249540E-01 -1.1554073365382E-01
30  2.9000000000000E-01  8.1933143646878E-01 -1.2476757443938E-01
31  3.0000000000000E-01  8.5559351438943E-01 -1.3345902661003E-01
32  3.1000000000000E-01  8.9171619730352E-01 -1.4144982764699E-01
33  3.2000000000000E-01  9.2771538517094E-01 -1.4857971422933E-01
34  3.3000000000000E-01  9.6360349294375E-01 -1.5469680646132E-01
35  3.4000000000000E-01  9.9938618377283E-01 -1.5966085218401E-01
36  3.5000000000000E-01  1.0350592471171E+00 -1.6334624882045E-01
37  3.6000000000000E-01  1.0706057069601E+00 -1.6564476434205E-01
38  3.7000000000000E-01  1.1059932407289E+00 -1.6646788505832E-01
39  3.8000000000000E-01  1.1411719829534E+00 -1.6574872590213E-01
40  3.9000000000000E-01  1.1760727793275E+00 -1.6344344854152E-01
41  4.0000000000000E-01  1.2106059468278E+00 -1.5953214378898E-01
42  4.1000000000000E-01  1.2446605841140E+00 -1.5401914715380E-01
43  4.2000000000000E-01  1.2781044638360E+00 -1.4693276971480E-01
44  4.3000000000000E-01  1.3107845249874E+00 -1.3832444047474E-01
45  4.4000000000000E-01  1.3425279693674E+00 -1.2826727067162E-01
46  4.5000000000000E-01  1.3731439518715E+00 -1.1685406482916E-01
47  4.6000000000000E-01  1.4024258400444E+00 -1.0419481728981E-01
48  4.7000000000000E-01  1.4301540044284E+00 -9.0413746252914E-02
49  4.8000000000000E-01  1.4560990880529E+00 -7.5645929611971E-02
50  4.9000000000000E-01  1.4800256912342E+00 -6.0033617843449E-02
51  5.0000000000000E-01  1.5016963969966E+00 -4.3722308565301E-02
52  5.1000000000000E-01  1.5208760531260E+00 -2.6856674909778E-02
53  5.2000000000000E-01  1.5373362193743E+00 -9.5764453351946E-03
54  5.3000000000000E-01  1.5508596828253E+00  7.9876642277366E-03
55  5.4000000000000E-01  1.5612449410620E+00  2.5717864051214E-02
56  5.5000000000000E-01  1.5683105516419E+00  4.3512949699953E-02
57  5.6000000000000E-01  1.5718992475407E+00  6.1291609956328E-02
58  5.7000000000000E-01  1.5718817216636E+00  7.8995293175057E-02
59  5.8000000000000E-01  1.5681599892047E+00  9.6590550076325E-02
60  5.9000000000000E-01  1.5606702444383E+00  1.1407078148756E-01
61  6.0000000000000E-01  1.5493851383251E+00  1.3145733192559E-01
62  6.1000000000000E-01  1.5343154148844E+00  1.4879988392089E-01
63  6.2000000000000E-01  1.5155108574099E+00  1.6617612333010E-01
64  6.3000000000000E-01  1.4930605099930E+00  1.8369066223354E-01
65  6.4000000000000E-01  1.4670921551677E+00  2.0147322301439E-01
66  6.5000000000000E-01  1.4377710444717E+00  2.1967610448858E-01
67  6.6000000000000E-01  1.4052978949733E+00  2.3847096810863E-01
68  6.7000000000000E-01  1.3699061809966E+00  2.5804499891066E-01
69  6.8000000000000E-01  1.3318587660119E+00  2.7859651162066E-01
70  6.9000000000000E-01  1.2914439346002E+00  3.0033008681306E-01
71  7.0000000000000E-01  1.2489708982112E+00  3.2345133487044E-01
72  7.1000000000000E-01  1.2047648607816E+00  3.4816139640792E-01
73  7.2000000000000E-01  1.1591617408918E+00  3.7465129651877E-01
74  7.3000000000000E-01  1.1125026557482E+00  4.0309627643489E-01
75  7.4000000000000E-01  1.0651282786836E+00  4.3365022979090E-01
76  7.5000000000000E-01  1.0173731858929E+00  4.6644037150864E-01
77  7.6000000000000E-01  9.6956030966713E-01  5.0156226531051E-01
78  7.7000000000000E-01  9.2199561438361E-01  5.3907533102120E-01
79  7.8000000000000E-01  8.7496310795329E-01  5.7899894518542E-01
80  7.9000000000000E-01  8.2872029537782E-01  6.2130923823554E-01
81  8.0000000000000E-01  7.8349417262507E-01  6.6593667866982E-01
82  8.1000000000000E-01  7.3947784836494E-01  7.1276451968876E-01
83  8.2000000000000E-01  6.9682786842519E-01  7.6162816677792E-01
84  8.3000000000000E-01  6.5566230338980E-01  8.1231550616058E-01
85  8.4000000000000E-01  6.1605964387212E-01  8.6456821425506E-01
86  8.5000000000000E-01  5.7805853098380E-01  9.1808404767265E-01
87  8.6000000000000E-01  5.4165833175447E-01  9.7252009232239E-01
88  8.7000000000000E-01  5.0682055111631E-01  1.0274969292998E+00
89  8.8000000000000E-01  4.7347105394766E-01  1.0826036548861E+00
90  8.9000000000000E-01  4.4150305296688E-01  1.1374036726265E+00
91  9.0000000000000E-01  4.1078080137427E-01  1.1914411575213E+00
92  9.1000000000000E-01  3.8114391343079E-01  1.2442480762748E+00
93  9.2000000000000E-01  3.5241222199378E-01  1.2953516336686E+00
94  9.3000000000000E-01  3.2439106972256E-01  1.3442820037987E+00
95  9.4000000000000E-01  2.9687692050662E-01  1.3905801964258E+00
96  9.5000000000000E-01  2.6966316989479E-01  1.4338059032462E+00
97  9.6000000000000E-01  2.4254602810539E-01  1.4735451666752E+00
98  9.7000000000000E-01  2.1533034670701E-01  1.5094177148231E+00
99  9.8000000000000E-01  1.8783526035487E-01  1.5410838107656E+00
100  9.9000000000000E-01  1.5989951806354E-01  1.5682504719167E+00
101  1.0000000000000E+00  1.3138638434381E-01  1.5906769261734E+00
102  1.0100000000000E+00  1.0218799902524E-01  1.6081791853278E+00
103  1.0200000000000E+00  7.2229095563971E-02  1.6206336327882E+00
104  1.0300000000000E+00  4.1469990868658E-02  1.6279795415710E+00
105  1.0400000000000E+00  9.9087748917370E-03  1.6302204594543E+00
106  1.0500000000000E+00 -2.2417354862270E-02  1.6274244207299E+00
107  1.0600000000000E+00 -5.5431650572284E-02  1.6197229676151E+00
108  1.0700000000000E+00 -8.9018280608154E-02  1.6073089886802E+00
109  1.0800000000000E+00 -1.2302370318188E-01  1.5904334060657E+00
110  1.0900000000000E+00 -1.5725892531514E-01  1.5694007672282E+00
111  1.1000000000000E+00 -1.9150260585272E-01  1.5445638201078E+00
112  1.1100000000000E+00 -2.2550494266845E-01  1.5163171722271E+00
113  1.1200000000000E+00 -2.5899226670498E-01  1.4850901540740E+00
114  1.1300000000000E+00 -2.9167224962203E-01  1.4513390245333E+00
115  1.1400000000000E+00 -3.2323961781259E-01  1.4155386708982E+00
116  1.1500000000000E+00 -3.5338225381075E-01  1.3781739676308E+00
117  1.1600000000000E+00 -3.8178755683758E-01  1.3397309663808E+00
118  1.1700000000000E+00 -4.0814892770197E-01  1.3006880945296E+00
119  1.1800000000000E+00 -4.3217223959419E-01  1.2615075406093E+00
120  1.1900000000000E+00 -4.5358215560795E-01  1.2226270022986E+00
121  1.2000000000000E+00 -4.7212815614371E-01  1.1844519662792E+00
122  1.2100000000000E+00 -4.8759014459480E-01  1.1473486792776E+00
123  1.2200000000000E+00 -4.9978350789199E-01  1.1116379561254E+00
124  1.2300000000000E+00 -5.0856351934270E-01  1.0775899540481E+00
125  1.2400000000000E+00 -5.1382898453371E-01  1.0454200229319E+00
126  1.2500000000000E+00 -5.1552504671886E-01  1.0152857192506E+00
127  1.2600000000000E+00 -5.1364508553609E-01  9.8728504741752E-01
128  1.2700000000000E+00 -5.0823166195892E-01  9.6145596671656E-01
129  1.2800000000000E+00 -4.9937648258203E-01  9.3777717535733E-01
130  1.2900000000000E+00 -4.8721937715398E-01  9.1617015622672E-01
131  1.3000000000000E+00 -4.7194630446531E-01  8.9650244189755E-01
132  1.3100000000000E+00 -4.5378642266823E-01  8.7859203016222E-01
133  1.3200000000000E+00 -4.3300828040661E-01  8.6221285633564E-01
134  1.3300000000000E+00 -4.0991520439031E-01  8.4710120527894E-01
135  1.3400000000000E+00 -3.8483997685877E-01  8.3296292502636E-01
136  1.3500000000000E+00 -3.5813891222836E-01  8.1948128566666E-01
137  1.3600000000000E+00 -3.3018545586278E-01  8.0632531201524E-01
138  1.3700000000000E+00 -3.0136343904554E-01  7.9315840697251E-01
139  1.3800000000000E+00 -2.7206013252866E-01  7.7964707467332E-01
140  1.3900000000000E+00 -2.4265924633736E-01  7.6546954874112E-01
141  1.4000000000000E+00 -2.1353402568102E-01  7.5032413131059E-01
142  1.4100000000000E+00 -1.8504059178385E-01  7.3393705302091E-01
143  1.4200000000000E+00 -1.5751167215043E-01  7.1606967294898E-01
144  1.4300000000000E+00 -1.3125085733469E-01  6.9652485023493E-01
145  1.4400000000000E+00 -1.0652751075792E-01  6.7515233584989E-01
146  1.4500000000000E+00 -8.3572444700501E-02  6.5185305329202E-01
147  1.4600000000000E+00 -6.2574459610193E-02  6.2658216049844E-01
148  1.4700000000000E+00 -4.3677825367184E-02  5.9935081188611E-01
149  1.4800000000000E+00 -2.6980762795898E-02  5.7022656824713E-01
150  1.4900000000000E+00 -1.2534961619441E-02  5.3933243311590E-01
151  1.5000000000000E+00 -3.4614776303508E-04  5.0684452645759E-01
152  1.5100000000000E+00  9.6243111764877E-03  4.7298843958940E-01
153  1.5200000000000E+00  1.7456797929031E-02  4.3803434857000E-01
154  1.5300000000000E+00  2.3269894877119E-02  4.0229099611716E-01
155  1.5400000000000E+00  2.7215974418004E-02  3.6609868426341E-01
156  1.5500000000000E+00  2.9476036661990E-02  3.2982145028176E-01