<?xml version="1.0" encoding="UTF-8" ?>
<psml version="1.1" energy_unit="hartree" length_unit="bohr"
 uuid="02ca7ab0-c73d-11ed-7328-fa0ea6bbcf0f"
 xmlns="http://esl.cecam.org/PSML/ns/1.1">
<provenance creator="ONCVPSP-4.0.1+psml-4.0.1-76 (scalar-relativistic)"
 date="2023-03-20">
<annotation action="semilocal-pseudopotential-generation"
 action-cont="projectors-generation" />
<input-file name="oncvpsp-input">
<![CDATA[# atsym z nc nv iexc psfile
Pb 82 12 3 4 both
# n l f
1 0 2.0
2 0 2.0
2 1 6.0
3 0 2.0
3 1 6.0
3 2 10.0
4 0 2.0
4 1 6.0
4 2 10.0
5 0 2.0
5 1 6.0
4 3 14.0
5 2 10.0
6 0 2.0
6 1 2.0
# lmax
3
# l rc ep ncon nbas qcut
0 2.15 0.0 4 7 3.0
1 2.55 0.0 4 8 6.0
2 2.1 0.0 4 7 7.2
3 2.1 0.05 4 7 6.0
# lloc lpopt rc5 dvloc0
4 5 1.9 0.0
# l nproj debl
0 3 2.7
1 2 4.7
2 2 1.0
3 1 1.0
# icmod fcfact rcfact
3 6.0 1.34
# epsh1 epsh2 depsh
-15.0 12.0 0.02
# rlmax drl
6.0 0.01
0
]]>
</input-file>
</provenance>
<pseudo-atom-spec atomic-label="Pb" atomic-number="82" z-pseudo="14"
 flavor="Hamann&apos;s oncvpsp" relativity="scalar" spin-dft="no"
 core-corrections="yes">
<annotation pseudo-energy="-60.1601498610" cutoff_hint_low="50"
 cutoff_hint_normal="53" cutoff_hint_high="59" />
<exchange-correlation>
<annotation oncvpsp-xc-code="4" oncvpsp-xc-type="GGA -- Perdew-Burke-Ernzerhof" />
<libxc-info number-of-functionals="2">
<functional name="Perdew, Burke &amp; Ernzerhof (GGA)" type="exchange" id="101" />
<functional name="Perdew, Burke &amp; Ernzerhof (GGA)" type="correlation"
 id="130" />
</libxc-info>
</exchange-correlation>
<valence-configuration total-valence-charge="14">
<shell n="5" l="d" occupation="10" />
<shell n="6" l="s" occupation="2" />
<shell n="6" l="p" occupation="2" />
</valence-configuration>
</pseudo-atom-spec>
<grid npts="797">
<annotation type="sampled from oncvpsp log grid"
 recipe="r(i:1..N) = r1*exp(a*(i-1)) + r=0; resampled"
 recipe-cont="r1: scale; a: step" scale="0.609756097561E-05"
 step="0.598207167755E-02" delta="0.500000000000E-02" rmax="44.5678017867" />
<grid-data>
  0.000000000000E+00  5.012917066129E-03  1.003358844303E-02  1.507019847945E-02
  2.008269750250E-02  2.520840189099E-02  3.034469078718E-02  3.545114079808E-02
  4.068026484171E-02  4.585042715774E-02  5.106308378314E-02  5.619203113603E-02
  6.146734310012E-02  6.683688045181E-02  7.224202661049E-02  7.761857931552E-02
  8.289789013999E-02  8.800822956848E-02  9.343360197344E-02  9.860181703668E-02
  1.040559083412E-01  1.091567484428E-01  1.145076326809E-01  1.201208182658E-01
  1.252576175533E-01  1.306140848992E-01  1.361996141017E-01  1.420240006716E-01
  1.472141739674E-01  1.525940187181E-01  1.581704663418E-01  1.639507015605E-01
  1.699421716574E-01  1.751019841666E-01  1.804184597622E-01  1.858963550750E-01
  1.915405711572E-01  1.973561578679E-01  2.033483183904E-01  2.095224138884E-01
  2.145963899621E-01  2.197932418308E-01  2.251159451612E-01  2.305675476811E-01
  2.361511709249E-01  2.418700120207E-01  2.477273455210E-01  2.537265252776E-01
  2.598709863622E-01  2.661642470333E-01  2.726099107503E-01  2.792116682373E-01
  2.842676934355E-01  2.894152742300E-01  2.946560685295E-01  2.999917642641E-01
  3.054240799297E-01  3.109547651406E-01  3.165856011940E-01  3.223184016429E-01
  3.281550128807E-01  3.340973147354E-01  3.401472210756E-01  3.463066804267E-01
  3.525776765981E-01  3.589622293227E-01  3.654623949071E-01  3.720802668940E-01
  3.788179767362E-01  3.856776944836E-01  3.926616294817E-01  3.997720310833E-01
  4.070111893729E-01  4.143814359045E-01  4.218851444523E-01  4.269629540509E-01
  4.321018801658E-01  4.373026583955E-01  4.425660331920E-01  4.478927579675E-01
  4.532835952024E-01  4.587393165542E-01  4.642607029683E-01  4.698485447892E-01
  4.755036418743E-01  4.812268037079E-01  4.870188495173E-01  4.928806083901E-01
  4.988129193927E-01  5.048166316905E-01  5.108926046695E-01  5.170417080593E-01
  5.232648220575E-01  5.295628374558E-01  5.359366557674E-01  5.423871893562E-01
  5.489153615673E-01  5.555221068591E-01  5.622083709373E-01  5.689751108899E-01
  5.758232953246E-01  5.827539045071E-01  5.897679305017E-01  5.968663773133E-01
  6.040502610306E-01  6.113206099724E-01  6.186784648340E-01  6.261248788367E-01
  6.336609178784E-01  6.412876606860E-01  6.490061989700E-01  6.568176375808E-01
  6.647230946667E-01  6.727237018342E-01  6.808206043094E-01  6.890149611029E-01
  6.973079451747E-01  7.057007436029E-01  7.141945577529E-01  7.227906034500E-01
  7.314901111531E-01  7.402943261309E-01  7.492045086402E-01  7.582219341062E-01
  7.673478933051E-01  7.765836925490E-01  7.859306538725E-01  7.953901152225E-01
  8.049634306493E-01  8.146519705006E-01  8.244571216176E-01  8.343802875333E-01
  8.393865692585E-01  8.444228886741E-01  8.494894260061E-01  8.545863625622E-01
  8.597138807375E-01  8.648721640220E-01  8.700613970061E-01  8.752817653881E-01
  8.805334559805E-01  8.858166567164E-01  8.911315566567E-01  8.964783459966E-01
  9.018572160726E-01  9.072683593690E-01  9.127119695252E-01  9.181882413424E-01
  9.236973707904E-01  9.292395550152E-01  9.348149923453E-01  9.404238822993E-01
  9.460664255931E-01  9.517428241467E-01  9.574532810916E-01  9.631980007781E-01
  9.689771887828E-01  9.747910519155E-01  9.806397982270E-01  9.865236370163E-01
  9.924427788384E-01  9.983974355115E-01  1.004387820125E+00  1.010414147045E+00
  1.016476631928E+00  1.022575491719E+00  1.028710944669E+00  1.034883210337E+00
  1.041092509599E+00  1.047339064657E+00  1.053623099045E+00  1.059944837639E+00
  1.066304506665E+00  1.072702333705E+00  1.079138547707E+00  1.085613378994E+00
  1.092127059268E+00  1.098679821623E+00  1.105271900553E+00  1.111903531956E+00
  1.118574953148E+00  1.125286402867E+00  1.132038121284E+00  1.138830350012E+00
  1.145663332112E+00  1.152537312104E+00  1.159452535977E+00  1.166409251193E+00
  1.173407706700E+00  1.180448152940E+00  1.187530841858E+00  1.194656026909E+00
  1.201823963071E+00  1.209034906849E+00  1.216289116290E+00  1.223586850988E+00
  1.230928372094E+00  1.238313942326E+00  1.245743825980E+00  1.253218288936E+00
  1.260737598670E+00  1.268302024262E+00  1.275911836407E+00  1.283567307426E+00
  1.291268711270E+00  1.299016323538E+00  1.306810421479E+00  1.314651284008E+00
  1.322539191712E+00  1.330474426862E+00  1.338457273424E+00  1.346488017064E+00
  1.354566945167E+00  1.362694346838E+00  1.370870512919E+00  1.379095735996E+00
  1.387370310412E+00  1.395694532274E+00  1.404068699468E+00  1.412493111665E+00
  1.420968070335E+00  1.429493878757E+00  1.438070842029E+00  1.446699267082E+00
  1.455379462684E+00  1.464111739460E+00  1.472896409897E+00  1.481733788356E+00
  1.490624191087E+00  1.499567936233E+00  1.508565343850E+00  1.517616735914E+00
  1.526722436329E+00  1.535882770947E+00  1.545098067573E+00  1.554368655978E+00
  1.563694867914E+00  1.573077037121E+00  1.582515499344E+00  1.592010592340E+00
  1.601562655894E+00  1.611172031830E+00  1.620839064021E+00  1.630564098405E+00
  1.640347482995E+00  1.650189567893E+00  1.660090705301E+00  1.670051249532E+00
  1.680071557030E+00  1.690151986372E+00  1.700292898290E+00  1.710494655680E+00
  1.720757623614E+00  1.731082169355E+00  1.741468662372E+00  1.751917474346E+00
  1.762428979192E+00  1.773003553067E+00  1.783641574385E+00  1.794343423832E+00
  1.805109484375E+00  1.815940141281E+00  1.826835782129E+00  1.837796796821E+00
  1.848823577602E+00  1.859916519068E+00  1.871076018182E+00  1.882302474292E+00
  1.893596289137E+00  1.904957866872E+00  1.916387614073E+00  1.927885939758E+00
  1.939453255396E+00  1.951089974929E+00  1.962796514778E+00  1.974573293867E+00
  1.986420733630E+00  1.998339258032E+00  2.010329293580E+00  2.022391269342E+00
  2.034525616958E+00  2.046732770659E+00  2.059013167283E+00  2.071367246287E+00
  2.083795449765E+00  2.096298222463E+00  2.108876011798E+00  2.121529267869E+00
  2.134258443476E+00  2.147063994137E+00  2.159946378102E+00  2.172906056370E+00
  2.185943492709E+00  2.199059153665E+00  2.212253508587E+00  2.225527029638E+00
  2.238880191816E+00  2.252313472967E+00  2.265827353805E+00  2.279422317928E+00
  2.293098851835E+00  2.306857444946E+00  2.320698589616E+00  2.334622781154E+00
  2.348630517841E+00  2.362722300948E+00  2.376898634753E+00  2.391160026562E+00
  2.405506986721E+00  2.419940028642E+00  2.434459668813E+00  2.449066426826E+00
  2.463760825387E+00  2.478543390340E+00  2.493414650682E+00  2.508375138586E+00
  2.523425389417E+00  2.538565941754E+00  2.553797337404E+00  2.569120121429E+00
  2.584534842157E+00  2.600042051210E+00  2.615642303517E+00  2.631336157339E+00
  2.647124174283E+00  2.663006919328E+00  2.678984960844E+00  2.695058870609E+00
  2.711229223833E+00  2.727496599176E+00  2.743861578771E+00  2.760324748244E+00
  2.776886696733E+00  2.793548016914E+00  2.810309305015E+00  2.827171160845E+00
  2.844134187810E+00  2.861198992937E+00  2.878366186895E+00  2.895636384016E+00
  2.913010202320E+00  2.930488263534E+00  2.948071193115E+00  2.965759620274E+00
  2.983554177996E+00  3.001455503064E+00  3.019464236082E+00  3.037581021498E+00
  3.055806507627E+00  3.074141346673E+00  3.092586194753E+00  3.111141711922E+00
  3.129808562193E+00  3.148587413566E+00  3.167478938048E+00  3.186483811676E+00
  3.205602714546E+00  3.224836330833E+00  3.244185348818E+00  3.263650460911E+00
  3.283232363677E+00  3.302931757859E+00  3.322749348406E+00  3.342685844496E+00
  3.362741959563E+00  3.382918411321E+00  3.403215921789E+00  3.423635217319E+00
  3.444177028623E+00  3.464842090795E+00  3.485631143340E+00  3.506544930200E+00
  3.527584199781E+00  3.548749704980E+00  3.570042203210E+00  3.591462456429E+00
  3.613011231168E+00  3.634689298555E+00  3.656497434346E+00  3.678436418952E+00
  3.700507037466E+00  3.722710079690E+00  3.745046340169E+00  3.767516618210E+00
  3.790121717919E+00  3.812862448226E+00  3.835739622916E+00  3.858754060653E+00
  3.881906585017E+00  3.905198024527E+00  3.928629212674E+00  3.952200987950E+00
  3.975914193878E+00  3.999769679041E+00  4.023768297116E+00  4.047910906898E+00
  4.072198372340E+00  4.096631562574E+00  4.121211351949E+00  4.145938620061E+00
  4.170814251781E+00  4.195839137292E+00  4.221014172116E+00  4.246340257148E+00
  4.271818298691E+00  4.297449208483E+00  4.323233903734E+00  4.349173307157E+00
  4.375268347000E+00  4.401519957082E+00  4.427929076824E+00  4.454496651285E+00
  4.481223631193E+00  4.508110972980E+00  4.535159638818E+00  4.562370596651E+00
  4.589744820231E+00  4.617283289152E+00  4.644986988887E+00  4.672856910820E+00
  4.700894052285E+00  4.729099416599E+00  4.757474013099E+00  4.786018857177E+00
  4.814734970320E+00  4.843623380142E+00  4.872685120423E+00  4.901921231146E+00
  4.931332758532E+00  4.960920755084E+00  4.990686279614E+00  5.020630397292E+00
  5.050754179676E+00  5.081058704754E+00  5.111545056982E+00  5.142214327324E+00
  5.173067613288E+00  5.204106018968E+00  5.235330655082E+00  5.266742639012E+00
  5.298343094846E+00  5.330133153415E+00  5.362113952336E+00  5.394286636050E+00
  5.426652355866E+00  5.459212270001E+00  5.491967543621E+00  5.524919348883E+00
  5.558068864976E+00  5.591417278166E+00  5.624965781835E+00  5.658715576526E+00
  5.692667869985E+00  5.726823877205E+00  5.761184820468E+00  5.795751929391E+00
  5.830526440968E+00  5.865509599613E+00  5.900702657211E+00  5.936106873154E+00
  5.971723514393E+00  6.007553855480E+00  6.043599178612E+00  6.079860773684E+00
  6.116339938326E+00  6.153037977956E+00  6.189956205824E+00  6.227095943059E+00
  6.264458518717E+00  6.302045269829E+00  6.339857541448E+00  6.377896686697E+00
  6.416164066817E+00  6.454661051218E+00  6.493389017526E+00  6.532349351631E+00
  6.571543447740E+00  6.610972708427E+00  6.650638544677E+00  6.690542375946E+00
  6.730685630201E+00  6.771069743982E+00  6.811696162446E+00  6.852566339421E+00
  6.893681737458E+00  6.935043827882E+00  6.976654090850E+00  7.018514015395E+00
  7.060625099487E+00  7.102988850084E+00  7.145606783184E+00  7.188480423884E+00
  7.231611306427E+00  7.275000974265E+00  7.318650980111E+00  7.362562885992E+00
  7.406738263308E+00  7.451178692887E+00  7.495885765045E+00  7.540861079635E+00
  7.586106246113E+00  7.631622883590E+00  7.677412620891E+00  7.723477096616E+00
  7.769817959196E+00  7.816436866951E+00  7.863335488153E+00  7.910515501082E+00
  7.957978594088E+00  8.005726465653E+00  8.053760824447E+00  8.102083389394E+00
  8.150695889730E+00  8.199600065068E+00  8.248797665459E+00  8.298290451451E+00
  8.348080194160E+00  8.398168675325E+00  8.448557687377E+00  8.499249033501E+00
  8.550244527702E+00  8.601545994869E+00  8.653155270838E+00  8.705074202463E+00
  8.757304647678E+00  8.809848475564E+00  8.862707566417E+00  8.915883811816E+00
  8.969379114686E+00  9.023195389375E+00  9.077334561711E+00  9.131798569081E+00
  9.186589360496E+00  9.241708896659E+00  9.297159150038E+00  9.352942104939E+00
  9.409059757568E+00  9.465514116114E+00  9.522307200810E+00  9.579441044015E+00
  9.636917690279E+00  9.694739196421E+00  9.752907631600E+00  9.811425077389E+00
  9.870293627854E+00  9.929515389621E+00  9.989092481958E+00  1.004902703685E+01
  1.010932119907E+01  1.016997712627E+01  1.023099698902E+01  1.029238297096E+01
  1.035413726878E+01  1.041626209240E+01  1.047875966495E+01  1.054163222294E+01
  1.060488201628E+01  1.066851130838E+01  1.073252237623E+01  1.079691751048E+01
  1.086169901555E+01  1.092686920964E+01  1.099243042490E+01  1.105838500745E+01
  1.112473531749E+01  1.119148372940E+01  1.125863263177E+01  1.132618442756E+01
  1.139414153413E+01  1.146250638333E+01  1.153128142163E+01  1.160046911016E+01
  1.167007192482E+01  1.174009235637E+01  1.181053291051E+01  1.188139610797E+01
  1.195268448462E+01  1.202440059153E+01  1.209654699508E+01  1.216912627705E+01
  1.224214103471E+01  1.231559388092E+01  1.238948744421E+01  1.246382436887E+01
  1.253860731508E+01  1.261383895897E+01  1.268952199273E+01  1.276565912468E+01
  1.284225307943E+01  1.291930659791E+01  1.299682243750E+01  1.307480337212E+01
  1.315325219235E+01  1.323217170551E+01  1.331156473574E+01  1.339143412416E+01
  1.347178272890E+01  1.355261342527E+01  1.363392910583E+01  1.371573268046E+01
  1.379802707654E+01  1.388081523900E+01  1.396410013044E+01  1.404788473122E+01
  1.413217203961E+01  1.421696507184E+01  1.430226686228E+01  1.438808046345E+01
  1.447440894623E+01  1.456125539991E+01  1.464862293231E+01  1.473651466990E+01
  1.482493375792E+01  1.491388336047E+01  1.500336666063E+01  1.509338686059E+01
  1.518394718176E+01  1.527505086485E+01  1.536670117004E+01  1.545890137706E+01
  1.555165478532E+01  1.564496471403E+01  1.573883450232E+01  1.583326750933E+01
  1.592826711439E+01  1.602383671707E+01  1.611997973737E+01  1.621669961580E+01
  1.631399981349E+01  1.641188381237E+01  1.651035511525E+01  1.660941724594E+01
  1.670907374942E+01  1.680932819191E+01  1.691018416106E+01  1.701164526603E+01
  1.711371513763E+01  1.721639742845E+01  1.731969581302E+01  1.742361398790E+01
  1.752815567183E+01  1.763332460586E+01  1.773912455349E+01  1.784555930082E+01
  1.795263265662E+01  1.806034845256E+01  1.816871054328E+01  1.827772280654E+01
  1.838738914337E+01  1.849771347823E+01  1.860869975910E+01  1.872035195766E+01
  1.883267406940E+01  1.894567011382E+01  1.905934413450E+01  1.917370019931E+01
  1.928874240051E+01  1.940447485491E+01  1.952090170404E+01  1.963802711426E+01
  1.975585527695E+01  1.987439040861E+01  1.999363675106E+01  2.011359857157E+01
  2.023428016300E+01  2.035568584398E+01  2.047781995904E+01  2.060068687879E+01
  2.072429100007E+01  2.084863674607E+01  2.097372856654E+01  2.109957093794E+01
  2.122616836357E+01  2.135352537375E+01  2.148164652600E+01  2.161053640515E+01
  2.174019962358E+01  2.187064082132E+01  2.200186466625E+01  2.213387585425E+01
  2.226667910937E+01  2.240027918403E+01  2.253468085913E+01  2.266988894429E+01
  2.280590827796E+01  2.294274372762E+01  2.308040018999E+01  2.321888259113E+01
  2.335819588668E+01  2.349834506200E+01  2.363933513237E+01  2.378117114316E+01
  2.392385817002E+01  2.406740131904E+01  2.421180572696E+01  2.435707656132E+01
  2.450321902068E+01  2.465023833481E+01  2.479813976482E+01  2.494692860341E+01
  2.509661017503E+01  2.524718983608E+01  2.539867297509E+01  2.555106501294E+01
  2.570437140302E+01  2.585859763144E+01  2.601374921723E+01  2.616983171253E+01
  2.632685070281E+01  2.648481180702E+01  2.664372067787E+01  2.680358300193E+01
  2.696440449994E+01  2.712619092694E+01  2.728894807251E+01  2.745268176094E+01
  2.761739785151E+01  2.778310223862E+01  2.794980085205E+01  2.811749965716E+01
  2.828620465510E+01  2.845592188303E+01  2.862665741433E+01  2.879841735882E+01
  2.897120786297E+01  2.914503511015E+01  2.931990532081E+01  2.949582475273E+01
  2.967279970125E+01  2.985083649946E+01  3.002994151845E+01  3.021012116757E+01
  3.039138189457E+01  3.057373018594E+01  3.075717256705E+01  3.094171560246E+01
  3.112736589607E+01  3.131413009145E+01  3.150201487200E+01  3.169102696123E+01
  3.188117312300E+01  3.207246016173E+01  3.226489492270E+01  3.245848429224E+01
  3.265323519799E+01  3.284915460918E+01  3.304624953684E+01  3.324452703406E+01
  3.344399419626E+01  3.364465816144E+01  3.384652611041E+01  3.404960526707E+01
  3.425390289867E+01  3.445942631607E+01  3.466618287396E+01  3.487417997121E+01
  3.508342505103E+01  3.529392560134E+01  3.550568915495E+01  3.571872328988E+01
  3.593303562962E+01  3.614863384339E+01  3.636552564645E+01  3.658371880033E+01
  3.680322111313E+01  3.702404043981E+01  3.724618468245E+01  3.746966179055E+01
  3.769447976129E+01  3.792064663986E+01  3.814817051970E+01  3.837705954282E+01
  3.860732190007E+01  3.883896583147E+01  3.907199962646E+01  3.930643162422E+01
  3.954227021397E+01  3.977952383525E+01  4.001820097826E+01  4.025831018413E+01
  4.049986004524E+01  4.074285920551E+01  4.098731636074E+01  4.123324025890E+01
  4.148063970046E+01  4.172952353866E+01  4.197990067989E+01  4.223178008397E+01
  4.248517076448E+01  4.274008178906E+01  4.299652227980E+01  4.325450141348E+01
  4.351402842196E+01  4.377511259249E+01  4.403776326804E+01  4.430198984765E+01
  4.456780178674E+01
</grid-data>
</grid>
<valence-charge total-charge="14" is-unscreening-charge="yes"
 rescaled-to-z-pseudo="no">
<radfunc>
<data npts="797">
  6.525203102683E-03  6.528518604829E-03  6.539350956710E-03  6.560385295327E-03
  6.595757031843E-03  6.653114436576E-03  6.740335451071E-03  6.866627812161E-03
  7.049207436756E-03  7.296889925118E-03  7.630457182983E-03  8.058446216630E-03
  8.622063325722E-03  9.347380548906E-03  1.025789931727E-02  1.137099070280E-02
  1.269385038734E-02  1.421945372691E-02  1.613493117434E-02  1.827485241615E-02
  2.090272080003E-02  2.373793947777E-02  2.714147001769E-02  3.122696505225E-02
  3.546744730923E-02  4.044128172820E-02  4.627401417710E-02  5.311207336367E-02
  5.990200596431E-02  6.767899649717E-02  7.658360772077E-02  8.677555537040E-02
  9.843610018658E-02  1.094224904519E-01  1.217040473025E-01  1.354281990994E-01
  1.507580357145E-01  1.678737479081E-01  1.869741535457E-01  2.082783058050E-01
  2.270694768539E-01  2.475590114338E-01  2.698913854833E-01  2.942219466321E-01
  3.207175111927E-01  3.495569572765E-01  3.809318061694E-01  4.150467825955E-01
  4.521203428085E-01  4.923851575615E-01  5.360885349167E-01  5.834927655515E-01
  6.216409928128E-01  6.621494880560E-01  7.051458629165E-01  7.507625645531E-01
  7.991368134617E-01  8.504105031501E-01  9.047300568908E-01  9.622462364156E-01
  1.023113897064E+00  1.087491683539E+00  1.155541660093E+00  1.227428868616E+00
  1.303320807814E+00  1.383386826368E+00  1.467797422754E+00  1.556723444181E+00
  1.650335177044E+00  1.748801321188E+00  1.852287840399E+00  1.960956681670E+00
  2.074964356124E+00  2.194460374934E+00  2.319585534231E+00  2.406194404382E+00
  2.495398798616E+00  2.587231495742E+00  2.681722199983E+00  2.778897226762E+00
  2.878779174121E+00  2.981386579934E+00  3.086733565169E+00  3.194829463541E+00
  3.305678438060E+00  3.419279085061E+00  3.535624026473E+00  3.654699491220E+00
  3.776484886813E+00  3.900952362372E+00  4.028066364485E+00  4.157783187530E+00
  4.290050520267E+00  4.424806990752E+00  4.561981711821E+00  4.701493829668E+00
  4.843252078241E+00  4.987154342461E+00  5.133087233531E+00  5.280925679826E+00
  5.430532537165E+00  5.581758222483E+00  5.734440375218E+00  5.888403550948E+00
  6.043458952078E+00  6.199404200598E+00  6.356023158132E+00  6.513085798724E+00
  6.670348139924E+00  6.827552237903E+00  6.984426252418E+00  7.140684587473E+00
  7.296028113565E+00  7.450144477321E+00  7.602708504228E+00  7.753382699991E+00
  7.901817855775E+00  8.047653762270E+00  8.190520037073E+00  8.330037069410E+00
  8.465817085529E+00  8.597465337470E+00  8.724581417017E+00  8.846760695732E+00
  8.963595890946E+00  9.074678756373E+00  9.179601894781E+00  9.277960688763E+00
  9.369355344155E+00  9.453393039094E+00  9.529690170012E+00  9.597874684140E+00
  9.628812192832E+00  9.657588486295E+00  9.684161388290E+00  9.708489905862E+00
  9.730534308578E+00  9.750256208047E+00  9.767618637542E+00  9.782586131578E+00
  9.795124805263E+00  9.805202433248E+00  9.812788528096E+00  9.817854417875E+00
  9.820373322784E+00  9.820320430611E+00  9.817672970805E+00  9.812410286977E+00
  9.804513907584E+00  9.793967614602E+00  9.780757509958E+00  9.764872079490E+00
  9.746302254217E+00  9.725041468695E+00  9.701085716220E+00  9.674433600659E+00
  9.645086384676E+00  9.613048034137E+00  9.578325258459E+00  9.540927546702E+00
  9.500867199167E+00  9.458159354310E+00  9.412822010764E+00  9.364876044268E+00
  9.314345219320E+00  9.261256195384E+00  9.205638527470E+00  9.147524660939E+00
  9.086949920393E+00  9.023952492511E+00  8.958573402728E+00  8.890856485643E+00
  8.820848349087E+00  8.748598331781E+00  8.674158454522E+00  8.597583364905E+00
  8.518930275529E+00  8.438258895740E+00  8.355631356918E+00  8.271112131385E+00
  8.184767945001E+00  8.096667683560E+00  8.006882293112E+00  7.915484674365E+00
  7.822549571336E+00  7.728153454466E+00  7.632374398409E+00  7.535291954764E+00
  7.436987020004E+00  7.337541698917E+00  7.237039163877E+00  7.135563510278E+00
  7.033199608523E+00  6.930032952924E+00  6.826149507949E+00  6.721635552229E+00
  6.616577520767E+00  6.511061845818E+00  6.405174796911E+00  6.299002320498E+00
  6.192629879731E+00  6.086142294876E+00  5.979623584876E+00  5.873156810578E+00
  5.766823920156E+00  5.660705597235E+00  5.554881112254E+00  5.449428177561E+00
  5.344422806760E+00  5.239939178802E+00  5.136049507304E+00  5.032823915551E+00
  4.930330317658E+00  4.828634306288E+00  4.727799047359E+00  4.627885182105E+00
  4.528950736852E+00  4.431051040822E+00  4.334238652272E+00  4.238563293205E+00
  4.144071792892E+00  4.050808040378E+00  3.958812946114E+00  3.868124412836E+00
  3.778777315734E+00  3.690803491949E+00  3.604231739368E+00  3.519087824662E+00
  3.435394500455E+00  3.353171531486E+00  3.272435729563E+00  3.193200997098E+00
  3.115478378932E+00  3.039276122170E+00  2.964599743656E+00  2.891452104738E+00
  2.819833492889E+00  2.749741709762E+00  2.681172165208E+00  2.614117976757E+00
  2.548570074069E+00  2.484517307800E+00  2.421946562358E+00  2.360842871975E+00
  2.301189539543E+00  2.242968257626E+00  2.186159231090E+00  2.130741300764E+00
  2.076692067587E+00  2.023988016650E+00  1.972604640626E+00  1.922516562019E+00
  1.873697653741E+00  1.826121157510E+00  1.779759799608E+00  1.734585903538E+00
  1.690571499167E+00  1.647688427965E+00  1.605908443976E+00  1.565203310184E+00
  1.525544889989E+00  1.486905233516E+00  1.449256658533E+00  1.412571825771E+00
  1.376823808499E+00  1.341986156200E+00  1.308032952271E+00  1.274938865665E+00
  1.242679196455E+00  1.211229915308E+00  1.180567696898E+00  1.150669947316E+00
  1.121514825549E+00  1.093081259151E+00  1.065348954227E+00  1.038298399899E+00
  1.011910867427E+00  9.861684042056E-01  9.610538228335E-01  9.365506853998E-01
  9.126432832401E-01  8.893166129047E-01  8.665563487250E-01  8.443488116243E-01
  8.226809347809E-01  8.015402264722E-01  7.809147304977E-01  7.607929606291E-01
  7.411637395053E-01  7.220159889718E-01  7.033387303378E-01  6.851210884886E-01
  6.673523318977E-01  6.500219306957E-01  6.331195665614E-01  6.166351225021E-01
  6.005586873097E-01  5.848805541214E-01  5.695912195892E-01  5.546813827065E-01
  5.401419433913E-01  5.259640008417E-01  5.121388516802E-01  4.986579879014E-01
  4.855130946383E-01  4.726960477642E-01  4.601989113427E-01  4.480139349440E-01
  4.361335508402E-01  4.245503710954E-01  4.132571845668E-01  4.022469538350E-01
  3.915128120807E-01  3.810480598968E-01  3.708461620444E-01  3.609007442040E-01
  3.512055897170E-01  3.417546363352E-01  3.325419729879E-01  3.235618358243E-01
  3.148086011819E-01  3.062767770779E-01  2.979609996692E-01  2.898560316348E-01
  2.819567590883E-01  2.742581890724E-01  2.667554469846E-01  2.594437740325E-01
  2.523185247151E-01  2.453751643301E-01  2.386092665110E-01  2.320165107945E-01
  2.255926802209E-01  2.193336589676E-01  2.132354300193E-01  2.072940728734E-01
  2.015057612837E-01  1.958667610416E-01  1.903734277976E-01  1.850222049220E-01
  1.798096214053E-01  1.747322898003E-01  1.697869042042E-01  1.649702382823E-01
  1.602791433327E-01  1.557105463925E-01  1.512614483848E-01  1.469289223066E-01
  1.427101114584E-01  1.386022277127E-01  1.346025498245E-01  1.307084217801E-01
  1.269172511863E-01  1.232265076976E-01  1.196337214826E-01  1.161364817276E-01
  1.127324351777E-01  1.094192847142E-01  1.061947879687E-01  1.030567559714E-01
  1.000030518353E-01  9.703158947316E-02  9.414033234833E-02  9.132729225820E-02
  8.859052814908E-02  8.592814496238E-02  8.333829251108E-02  8.081916438581E-02
  7.836899688986E-02  7.598606800235E-02  7.366869636883E-02  7.141524031861E-02
  6.922409690821E-02  6.709370098999E-02  6.502252430557E-02  6.300907460314E-02
  6.105189477810E-02  5.914956203632E-02  5.730068707947E-02  5.550391331165E-02
  5.375791606689E-02  5.206140185673E-02  5.041310763742E-02  4.881180009618E-02
  4.725627495587E-02  4.574535629762E-02  4.427789590085E-02  4.285277260022E-02
  4.146889165893E-02  4.012518415801E-02  3.882060640105E-02  3.755413933394E-02
  3.632478797920E-02  3.513158088450E-02  3.397356958491E-02  3.284982807854E-02
  3.175945231515E-02  3.070155969744E-02  2.967528859452E-02  2.867979786734E-02
  2.771426640577E-02  2.677789267687E-02  2.586989428418E-02  2.498950753763E-02
  2.413598703385E-02  2.330860524656E-02  2.250665212678E-02  2.172943471253E-02
  2.097627674792E-02  2.024651831120E-02  1.953951545161E-02  1.885463983485E-02
  1.819127839678E-02  1.754883300528E-02  1.692672013000E-02  1.632437051973E-02
  1.574122888728E-02  1.517675360153E-02  1.463041638666E-02  1.410170202810E-02
  1.359010808527E-02  1.309514461073E-02  1.261633387566E-02  1.215321010145E-02
  1.170531919727E-02  1.127221850344E-02  1.085347654033E-02  1.044867276285E-02
  1.005739732015E-02  9.679250820536E-03  9.313844101336E-03  8.960798003689E-03
  8.619743152020E-03  8.290319738123E-03  7.972177309702E-03  7.664974563246E-03
  7.368379141115E-03  7.082067432726E-03  6.805724379717E-03  6.539043284984E-03
  6.281725625490E-03  6.033480868734E-03  5.794026292799E-03  5.563086809872E-03
  5.340394793159E-03  5.125689907098E-03  4.918718940807E-03  4.719235644672E-03
  4.527000570016E-03  4.341780911767E-03  4.163350354078E-03  3.991488918810E-03
  3.825982816844E-03  3.666624302154E-03  3.513211528587E-03  3.365548409303E-03
  3.223444478825E-03  3.086714757666E-03  2.955179619466E-03  2.828664660626E-03
  2.707000572384E-03  2.590023015305E-03  2.477572496143E-03  2.369494247056E-03
  2.265638107127E-03  2.165858406179E-03  2.070013850842E-03  1.977967412851E-03
  1.889586219553E-03  1.804741446587E-03  1.723308212731E-03  1.645165476871E-03
  1.570195937087E-03  1.498285931825E-03  1.429325343133E-03  1.363207501942E-03
  1.299829095369E-03  1.239090076020E-03  1.180893573265E-03  1.125145806483E-03
  1.071756000224E-03  1.020636301290E-03  9.717016977068E-04  9.248699395513E-04
  8.800614616270E-04  8.371993079504E-04  7.962090580304E-04  7.570187549118E-04
  7.195588349586E-04  6.837620593491E-04  6.495634472560E-04  6.169002106833E-04
  5.857116909321E-04  5.559392966657E-04  5.275264435448E-04  5.004184954027E-04
  4.745627069304E-04  4.499081678400E-04  4.264057484775E-04  4.040080468501E-04
  3.826693370410E-04  3.623455189756E-04  3.429940695113E-04  3.245739948171E-04
  3.070457840114E-04  2.903713640283E-04  2.745140556796E-04  2.594385308831E-04
  2.451107710251E-04  2.314980264288E-04  2.185687768986E-04  2.062926933102E-04
  1.946406002207E-04  1.835844394675E-04  1.730972347331E-04  1.631530570458E-04
  1.537269911932E-04  1.447951030233E-04  1.363344076081E-04  1.283228382485E-04
  1.207392162967E-04  1.135632217754E-04  1.067753647730E-04  1.003569575949E-04
  9.429008765188E-05  8.855759106765E-05  8.314302698767E-05  7.803065257276E-05
  7.320539866142E-05  6.865284608554E-05  6.435920262484E-05  6.031128058593E-05
  5.649647499255E-05  5.290274237400E-05  4.951858013948E-05  4.633300652614E-05
  4.333554110965E-05  4.051618586581E-05  3.786540677284E-05  3.537411594362E-05
  3.303365427791E-05  3.083577462475E-05  2.877262544524E-05  2.683673496653E-05
  2.502099581760E-05  2.331865013785E-05  2.172327514956E-05  2.022876918539E-05
  1.882933816218E-05  1.751948249238E-05  1.629398442460E-05  1.514789580457E-05
  1.407652624827E-05  1.307543171839E-05  1.214040349607E-05  1.126745753911E-05
  1.045282421851E-05  9.692938424709E-06  8.984430035260E-06  8.324114735436E-06
  7.708985183425E-06  7.136202511710E-06  6.603088156262E-06  6.107116005189E-06
  5.645904858523E-06  5.217211190826E-06  4.818922208353E-06  4.449049192548E-06
  4.105721121672E-06  3.787178562464E-06  3.491767823730E-06  3.217935363891E-06
  2.964222444551E-06  2.729260022234E-06  2.511763870558E-06  2.310529925158E-06