Pb    ONCVPSP-4.0.1  r_core=   2.15995   2.55380   2.10888   2.10888
82.0000     14.0000      220130    zatom,zion,pspd
8      11   3     4   600     0    pspcod,pspxc,lmax,lloc,mmax,r2well
5.99000000  6.00000000  0.00000000    rchrg fchrg qchrg
3     2     2     1     0    nproj
1     1           extension_switch
0                         1.1630214828989E+01  3.7090471915467E+00  8.4117761147525E-01
1  0.0000000000000E+00  6.4584078710017E-10 -1.0037404241103E-09  9.8380931179420E-10
2  1.0000000000000E-02 -1.3354242461593E-03  4.1912958439423E-02 -3.8156647886562E-02
3  2.0000000000000E-02 -2.4369003366136E-03  8.3409864110945E-02 -7.5896957490933E-02
4  3.0000000000000E-02 -3.0726634381926E-03  1.2407830440994E-01 -1.1280825040118E-01
5  4.0000000000000E-02 -3.0152962398652E-03  1.6351311639657E-01 -1.4848513736828E-01
6  5.0000000000000E-02 -2.0438550713864E-03  2.0131993523000E-01 -1.8253308669447E-01
7  6.0000000000000E-02  5.4060688509281E-05  2.3711865164005E-01 -2.1457190189080E-01
8  7.0000000000000E-02  3.4803140546409E-03  2.7054674930136E-01 -2.4423907952235E-01
9  8.0000000000000E-02  8.4243282230721E-03  3.0126249397867E-01 -2.7119301914325E-01
10  9.0000000000000E-02  1.5061293401292E-02  3.2894794755137E-01 -2.9511605843879E-01
11  1.0000000000000E-01  2.3550498436940E-02  3.5331178148894E-01 -3.1571730812756E-01
12  1.1000000000000E-01  3.4033801923189E-02  3.7409186602662E-01 -3.3273526282167E-01
13  1.2000000000000E-01  4.6634256253870E-02  3.9105761316606E-01 -3.4594016588497E-01
14  1.3000000000000E-01  6.1454896779280E-02  4.0401205368577E-01 -3.5513610835085E-01
15  1.4000000000000E-01  7.8577706785661E-02  4.1279363057175E-01 -3.6016284414883E-01
16  1.5000000000000E-01  9.8062767499724E-02  4.1727769365251E-01 -3.6089730622278E-01
17  1.6000000000000E-01  1.1994760071721E-01  4.1737768272530E-01 -3.5725481058529E-01
18  1.7000000000000E-01  1.4424670998508E-01  4.1304598906915E-01 -3.4918993792269E-01
19  1.8000000000000E-01  1.7095132454465E-01  4.0427448793622E-01 -3.3669708502109E-01
20  1.9000000000000E-01  2.0002934848246E-01  3.9109473737142E-01 -3.1981068100613E-01
21  2.0000000000000E-01  2.3142551575217E-01  3.7357784150914E-01 -2.9860506615339E-01
22  2.1000000000000E-01  2.6506174993949E-01  3.5183397931200E-01 -2.7319403381164E-01
23  2.2000000000000E-01  3.0083772585807E-01  3.2601160252627E-01 -2.4373003876421E-01
24  2.3000000000000E-01  3.3863162830351E-01  2.9629630940791E-01 -2.1040307811081E-01
25  2.4000000000000E-01  3.7830110156937E-01  2.6290940349962E-01 -1.7343925346251E-01
26  2.5000000000000E-01  4.1968438165931E-01  2.2610614938960E-01 -1.3309902588227E-01
27  2.6000000000000E-01  4.6260160152609E-01  1.8617373993493E-01 -8.9675177551911E-02
28  2.7000000000000E-01  5.0685625814724E-01  1.4342899186397E-01 -4.3490496581427E-02
29  2.8000000000000E-01  5.5223682881940E-01  9.8215788965012E-02  5.1047963198739E-03
30  2.9000000000000E-01  5.9851852273372E-01  5.0902294199813E-02  5.5735858440639E-02
31  3.0000000000000E-01  6.4546515269235E-01  1.8779540358815E-03  1.0800625008134E-01
32  3.1000000000000E-01  6.9283111075428E-01 -4.8449679949156E-02  1.6150114933833E-01
33  3.2000000000000E-01  7.4036343066407E-01 -9.9658285586005E-02  2.1579073041656E-01
34  3.3000000000000E-01  7.8780391913065E-01 -1.5131423282242E-01  2.7043367785020E-01
35  3.4000000000000E-01  8.3489133739041E-01 -2.0297614559511E-01  3.2498080785632E-01
36  3.5000000000000E-01  8.8136361401615E-01 -2.5419853298715E-01  3.7897876712841E-01
37  3.6000000000000E-01  9.2696006962515E-01 -3.0453545919420E-01  4.3197377870269E-01
38  3.7000000000000E-01  9.7142363399907E-01 -3.5354422147953E-01  4.8351540410444E-01
39  3.8000000000000E-01  1.0145030361567E+00 -4.0078900521472E-01  5.3316029081031E-01
40  3.9000000000000E-01  1.0559549481188E+00 -4.4584448528127E-01  5.8047587414644E-01
41  4.0000000000000E-01  1.0955460634715E+00 -4.8829934354515E-01  6.2504400307974E-01
42  4.1000000000000E-01  1.1330550923631E+00 -5.2775967281076E-01  6.6646445995069E-01
43  4.2000000000000E-01  1.1682746552684E+00 -5.6385223860588E-01  7.0435834503442E-01
44  4.3000000000000E-01  1.2010130586969E+00 -5.9622757133734E-01  7.3837129789619E-01
45  4.4000000000000E-01  1.2310959370245E+00 -6.2456286277998E-01  7.6817652881983E-01
46  4.5000000000000E-01  1.2583677457652E+00 -6.4856464250513E-01  7.9347763512188E-01
47  4.6000000000000E-01  1.2826930928697E+00 -6.6797121170899E-01  8.1401117890891E-01
48  4.7000000000000E-01  1.3039578960291E+00 -6.8255481394586E-01  8.2954900477389E-01
49  4.8000000000000E-01  1.3220703554630E+00 -6.9212352449515E-01  8.3990027804888E-01
50  4.9000000000000E-01  1.3369617332655E+00 -6.9652284246958E-01  8.4491322651125E-01
51  5.0000000000000E-01  1.3485869320656E+00 -6.9563697229109E-01  8.4447657086887E-01
52  5.1000000000000E-01  1.3569248675031E+00 -6.8938978379283E-01  8.3852063189691E-01
53  5.2000000000000E-01  1.3619786308253E+00 -6.7774544293614E-01  8.2701810475373E-01
54  5.3000000000000E-01  1.3637754397463E+00 -6.6070870792833E-01  8.0998449373487E-01
55  5.4000000000000E-01  1.3623663775765E+00 -6.3832488837568E-01  7.8747820351815E-01
56  5.5000000000000E-01  1.3578259224922E+00 -6.1067946797401E-01  7.5960028577742E-01
57  5.6000000000000E-01  1.3502512706771E+00 -5.7789739410843E-01  7.2649384288344E-01
58  5.7000000000000E-01  1.3397614588943E+00 -5.4014204057559E-01  6.8834309323540E-01
59  5.8000000000000E-01  1.3264962938372E+00 -4.9761385243373E-01  6.4537210555858E-01
60  5.9000000000000E-01  1.3106150973364E+00 -4.5054868470279E-01  5.9784321223493E-01
61  6.0000000000000E-01  1.2922952781524E+00 -3.9921584925659E-01  5.4605511438392E-01
62  6.1000000000000E-01  1.2717307426546E+00 -3.4391588674797E-01  4.9034069395754E-01
63  6.2000000000000E-01  1.2491301581458E+00 -2.8497808276248E-01  4.3106455053145E-01
64  6.3000000000000E-01  1.2247150839411E+00 -2.2275774959250E-01  3.6862028275231E-01
65  6.4000000000000E-01  1.1987179865284E+00 -1.5763329703113E-01  3.0342753650603E-01
66  6.5000000000000E-01  1.1713801562160E+00 -9.0003117398943E-02  2.3592884380060E-01
67  6.6000000000000E-01  1.1429495436025E+00 -2.0282311610855E-02  1.6658627808233E-01
68  6.7000000000000E-01  1.1136785349740E+00  5.1100715545594E-02  9.5877953215198E-02
69  6.8000000000000E-01  1.0838216863379E+00  1.2370776162578E-01  2.4294394638951E-02
70  6.9000000000000E-01  1.0536334362367E+00  1.9709440407385E-01 -4.7665187732749E-02
71  7.0000000000000E-01  1.0233658177364E+00  2.7081361832715E-01 -1.1949669451504E-01
72  7.1000000000000E-01  9.9326619006480E-01  3.4441940536399E-01 -1.9069496884960E-01
73  7.2000000000000E-01  9.6357501026574E-01  4.1747039750984E-01 -2.6075763420929E-01
74  7.3000000000000E-01  9.3452366495014E-01  4.8953341151460E-01 -3.2918890679568E-01
75  7.4000000000000E-01  9.0633238175885E-01  5.6018691838481E-01 -3.9550335155601E-01
76  7.5000000000000E-01  8.7920823950979E-01  6.2902440018970E-01 -4.5922955134402E-01
77  7.6000000000000E-01  8.5334329518860E-01  6.9565756505824E-01 -5.1991365950603E-01
78  7.7000000000000E-01  8.2891284496455E-01  7.5971939283271E-01 -5.7712280717807E-01
79  7.8000000000000E-01  8.0607383527811E-01  8.2086698533669E-01 -6.3044833782759E-01
80  7.9000000000000E-01  7.8496343876455E-01  8.7878419693626E-01 -6.7950884305216E-01
81  8.0000000000000E-01  7.6569780835898E-01  9.3318402300895E-01 -7.2395297534365E-01
82  8.1000000000000E-01  7.4837102138395E-01  9.8381072606976E-01 -7.6346201542904E-01
83  8.2000000000000E-01  7.3305422376613E-01  1.0304416816163E+00 -7.9775217388627E-01
84  8.3000000000000E-01  7.1979498277402E-01  1.0728889282318E+00 -8.2657660899655E-01
85  8.4000000000000E-01  7.0861685483548E-01  1.1110004090924E+00 -8.4972714520044E-01
86  8.5000000000000E-01  6.9951917308994E-01  1.1446608947595E+00 -8.6703567907073E-01
87  8.6000000000000E-01  6.9247705738096E-01  1.1737925799496E+00 -8.7837526235994E-01
88  8.7000000000000E-01  6.8744164740899E-01  1.1983553498679E+00 -8.8366085441819E-01
89  8.8000000000000E-01  6.8434055776692E-01  1.2183467146144E+00 -8.8284973907211E-01
90  8.9000000000000E-01  6.8307855158347E-01  1.2338014131169E+00 -8.7594160389161E-01
91  9.0000000000000E-01  6.8353842752514E-01  1.2447906909777E+00 -8.6297828261817E-01
92  9.1000000000000E-01  6.8558211296939E-01  1.2514212595169E+00 -8.4404316436717E-01
93  9.2000000000000E-01  6.8905195428128E-01  1.2538339461260E+00 -8.1926027601580E-01
94  9.3000000000000E-01  6.9377219331644E-01  1.2522020487975E+00 -7.8879304693226E-01
95  9.4000000000000E-01  6.9955061755603E-01  1.2467294103189E+00 -7.5284276785605E-01
96  9.5000000000000E-01  7.0618036966435E-01  1.2376482301259E+00 -7.1164675829270E-01
97  9.6000000000000E-01  7.1344190076779E-01  1.2252166341395E+00 -6.6547625920596E-01
98  9.7000000000000E-01  7.2110505039466E-01  1.2097160250720E+00 -6.1463407006235E-01
99  9.8000000000000E-01  7.2893123480366E-01  1.1914482376424E+00 -5.5945195138425E-01
100  9.9000000000000E-01  7.3667572437547E-01  1.1707325248819E+00 -5.0028781588228E-01
101  1.0000000000000E+00  7.4408998985888E-01  1.1479024032123E+00 -4.3752273294424E-01
102  1.0100000000000E+00  7.5092409655485E-01  1.1233023852398E+00 -3.7155777274920E-01
103  1.0200000000000E+00  7.5692912500163E-01  1.0972846302009E+00 -3.0281071753066E-01
104  1.0300000000000E+00  7.6185959639180E-01  1.0702055427258E+00 -2.3171266852719E-01
105  1.0400000000000E+00  7.6547588081597E-01  1.0424223510345E+00 -1.5870457791879E-01
106  1.0500000000000E+00  7.6754656648641E-01  1.0142896958499E+00 -8.4233735553009E-02
107  1.0600000000000E+00  7.6785076835091E-01  9.8615626120143E-01 -8.7502405026629E-03
108  1.0700000000000E+00  7.6618035495780E-01  9.5836147789086E-01  6.7296512524006E-02
109  1.0800000000000E+00  7.6234207307886E-01  9.3123232971981E-01  1.4346130219094E-01
110  1.0900000000000E+00  7.5615955042446E-01  9.0508029162758E-01  2.1930647577276E-01
111  1.1000000000000E+00  7.4747515780171E-01  8.8019842766734E-01  2.9440524224774E-01
112  1.1100000000000E+00  7.3615171324599E-01  8.5685867528181E-01  3.6834483591516E-01
113  1.1200000000000E+00  7.2207401200645E-01  8.3530934061972E-01  4.4072952450098E-01
114  1.1300000000000E+00  7.0515016776104E-01  8.1577282769539E-01  5.1118343723033E-01
115  1.1400000000000E+00  6.8531275207443E-01  7.9844362203764E-01  5.7935319007629E-01
116  1.1500000000000E+00  6.6251972086964E-01  7.8348654713417E-01  6.4491028731735E-01
117  1.1600000000000E+00  6.3675511855534E-01  7.7103530945882E-01  7.0755328064468E-01
118  1.1700000000000E+00  6.0802955240694E-01  7.6119134521441E-01  7.6700966931851E-01
119  1.1800000000000E+00  5.7638043184111E-01  7.5402297913035E-01  8.2303752728475E-01
120  1.1900000000000E+00  5.4187196930615E-01  7.4956490278463E-01  8.7542684567090E-01
121  1.2000000000000E+00  5.0459494165173E-01  7.4781797694988E-01  9.2400058170915E-01
122  1.2100000000000E+00  4.6466621297832E-01  7.4874935948100E-01  9.6861540780363E-01
123  1.2200000000000E+00  4.2222802212397E-01  7.5229295723326E-01  1.0091621571993E+00
124  1.2300000000000E+00  3.7744704006997E-01  7.5835019749917E-01  1.0455659654573E+00
125  1.2400000000000E+00  3.3051320463260E-01  7.6679111149036E-01  1.0777861096799E+00
126  1.2500000000000E+00  2.8163834184580E-01  7.7745571947670E-01  1.1058155501605E+00
127  1.2600000000000E+00  2.3105458538291E-01  7.9015570440035E-01  1.1296801817771E+00
128  1.2700000000000E+00  1.7901260722826E-01  8.0467635808344E-01  1.1494378050443E+00
129  1.2800000000000E+00  1.2577967455461E-01  8.2077878160068E-01  1.1651768292189E+00
130  1.2900000000000E+00  7.1637549372071E-02  8.3820231901869E-01  1.1770147222019E+00
131  1.3000000000000E+00  1.6880248991968E-02  8.5666720150495E-01  1.1850962242021E+00
132  1.3100000000000E+00 -3.8188313340739E-02  8.7587737683639E-01  1.1895913441637E+00
133  1.3200000000000E+00 -9.3256787150340E-02  8.9552349758923E-01  1.1906931598237E+00
134  1.3300000000000E+00 -1.4800892131052E-01  9.1528603978771E-01  1.1886154439217E+00
135  1.3400000000000E+00 -2.0212615627387E-01  9.3483852254832E-01  1.1835901405293E+00
136  1.3500000000000E+00 -2.5529024915164E-01  9.5385079828544E-01  1.1758647166815E+00
137  1.3600000000000E+00 -3.0718590847892E-01  9.7199238236011E-01  1.1656994154606E+00
138  1.3700000000000E+00 -3.5750341534191E-01  9.8893579065295E-01  1.1533644374159E+00
139  1.3800000000000E+00 -4.0594120759727E-01  1.0043598534393E+00  1.1391370776688E+00
140  1.3900000000000E+00 -4.5220840417890E-01  1.0179529741351E+00  1.1232988462690E+00
141  1.4000000000000E+00 -4.9602724695992E-01  1.0294163019666E+00  1.1061325993191E+00
142  1.4100000000000E+00 -5.3713543831776E-01  1.0384667883890E+00  1.0879197080812E+00
143  1.4200000000000E+00 -5.7528835343097E-01  1.0448400981427E+00  1.0689372927193E+00
144  1.4300000000000E+00 -6.1026110740829E-01  1.0482933471594E+00  1.0494555465206E+00
145  1.4400000000000E+00 -6.4185045860747E-01  1.0486076411336E+00  1.0297351753906E+00
146  1.4500000000000E+00 -6.6987653093025E-01  1.0455903904074E+00  1.0100249761355E+00
147  1.4600000000000E+00 -6.9418433946755E-01  1.0390773788947E+00  9.9055957554956E-01
148  1.4700000000000E+00 -7.1464510560817E-01  1.0289345670563E+00  9.7155735061853E-01
149  1.4800000000000E+00 -7.3115734958710E-01  1.0150596114105E+00  9.5321854826795E-01
150  1.4900000000000E+00 -7.4364775043040E-01  9.9738308571135E-01  9.3572362102568E-01
151  1.5000000000000E+00 -7.5207176533018E-01  9.7586939171345E-01  9.1923179276377E-01
152  1.5100000000000E+00 -7.5641400263657E-01  9.5051735035168E-01  9.0387986635424E-01
153  1.5200000000000E+00 -7.5668834486431E-01  9.2136046716105E-01  8.8978128263581E-01
154  1.5300000000000E+00 -7.5293782035906E-01  8.8846686882179E-01  8.7702543757413E-01
155  1.5400000000000E+00 -7.4523422453960E-01  8.5193891081868E-01  8.6567726191771E-01
156  1.5500000000000E+00 -7.3367749388969E-01  8.1191245929957E-01  8.5577706505021E-01
157  1.5600000000000E+00 -7.1839483811382E-01  7.6855585330103E-01  8.4734064212350E-01
158  1.5700000000000E+00 -6.9953963806506E-01  7.2206855653750E-01  8.4035964095821E-01
159  1.5800000000000E+00 -6.7729011917985E-01  6.7267951089586E-01  8.3480218264688E-01
160  1.5900000000000E+00 -6.5184781220057E-01  6.2064520661976E-01  8.3061372730398E-01
161  1.6000000000000E+00 -6.2343581490488E-01  5.6624748687093E-01  8.2771817401230E-01
162  1.6100000000000E+00 -5.9229687037986E-01  5.0979110689874E-01  8.2601918173150E-01
163  1.6200000000000E+00 -5.5869127905891E-01  4.5160107041092E-01  8.2540169578392E-01
164  1.6300000000000E+00 -5.2289466326443E-01  3.9201976788888E-01  8.2573366254186E-01
165  1.6400000000000E+00 -4.8519560435642E-01  3.3140394351806E-01  8.2686791311940E-01
166  1.6500000000000E+00 -4.4589317376253E-01  2.7012151908159E-01  8.2864419524577E-01
167  1.6600000000000E+00 -4.0529438014919E-01  2.0854830458569E-01  8.3089133107364E-01
168  1.6700000000000E+00 -3.6371155577328E-01  1.4706462652265E-01  8.3342947747892E-01
169  1.6800000000000E+00 -3.2145970562798E-01  8.6051905536670E-02  8.3607246443426E-01
170  1.6900000000000E+00 -2.7885384335345E-01  2.5889215815561E-02  8.3863018631107E-01
171  1.7000000000000E+00 -2.3620633802132E-01 -3.3050141211282E-02  8.4091102048321E-01
172  1.7100000000000E+00 -1.9382429582367E-01 -9.0402016329122E-02  8.4272424736961E-01
173  1.7200000000000E+00 -1.5200700039514E-01 -1.4581471296174E-01  8.4388244607829E-01
174  1.7300000000000E+00 -1.1104343498214E-01 -1.9895217702200E-01  8.4420384008369E-01
175  1.7400000000000E+00 -7.1209908943059E-02 -2.4949704559520E-01  8.4351456789339E-01
176  1.7500000000000E+00 -3.2767810129587E-02 -2.9715352509073E-01  8.4165085442464E-01
177  1.7600000000000E+00  4.0384964330403E-03 -3.4165007100550E-01  8.3846105981384E-01
178  1.7700000000000E+00  3.8983604467381E-02 -3.8274184320957E-01  8.3380758360771E-01
179  1.7800000000000E+00  7.1862819361690E-02 -4.2021291267920E-01  8.2756860372752E-01
180  1.7900000000000E+00  1.0249371213383E-01 -4.5387819784219E-01  8.1963963123579E-01
181  1.8000000000000E+00  1.3071746029279E-01 -4.8358511114776E-01  8.0993486375985E-01
182  1.8100000000000E+00  1.5639996337983E-01 -5.0921489910290E-01  7.9838832241338E-01
183  1.8200000000000E+00  1.7943272301473E-01 -5.3068366180623E-01  7.8495475919176E-01
184  1.8300000000000E+00  1.9973347940859E-01 -5.4794304093348E-01  7.6961032407576E-01
185  1.8400000000000E+00  2.1724659851450E-01 -5.6098056815592E-01  7.5235298343925E-01
186  1.8500000000000E+00  2.3194320625016E-01 -5.6981966908032E-01  7.3320268379812E-01
187  1.8600000000000E+00  2.4382106852224E-01 -5.7451932095371E-01  7.1220125743537E-01
188  1.8700000000000E+00  2.5290421808443E-01 -5.7517336554526E-01  6.8941206896117E-01
189  1.8800000000000E+00  2.5924233157118E-01 -5.7190948176092E-01  6.6491940418325E-01
190  1.8900000000000E+00  2.6290986223484E-01 -5.6488782552522E-01  6.3882760501583E-01
191  1.9000000000000E+00  2.6400493711997E-01 -5.5429935227941E-01  6.1125997662452E-01
192  1.9100000000000E+00  2.6264802407820E-01 -5.4036381123459E-01  5.8235736526947E-01
193  1.9200000000000E+00  2.5898041172071E-01 -5.2332760128061E-01  5.5227721511848E-01
194  1.9300000000000E+00  2.5316252675840E-01 -5.0346151507579E-01  5.2119299649363E-01
195  1.9400000000000E+00  2.4537207315953E-01 -4.8105819251393E-01  4.8929303579463E-01
196  1.9500000000000E+00  2.3580198997810E-01 -4.5642922474301E-01  4.5677850088349E-01
197  1.9600000000000E+00  2.2465826890219E-01 -4.2990208248716E-01  4.2386131970388E-01
198  1.9700000000000E+00  2.1215764863229E-01 -4.0181687542703E-01  3.9076194323372E-01
199  1.9800000000000E+00  1.9852520772012E-01 -3.7252297509202E-01  3.5770699330930E-01
200  1.9900000000000E+00  1.8399187796933E-01 -3.4237553153851E-01  3.2492681761845E-01
201  2.0000000000000E+00  1.6879190119781E-01 -3.1173191507009E-01  2.9265297518768E-01
202  2.0100000000000E+00  1.5316025268051E-01 -2.8094811502644E-01  2.6111567659905E-01
203  2.0200000000000E+00  1.3733006570592E-01 -2.5037514140631E-01  2.3054121245528E-01
204  2.0300000000000E+00  1.2152994805022E-01 -2.2035529680048E-01  2.0114928274265E-01
205  2.0400000000000E+00  1.0598184153567E-01 -1.9121914223276E-01  1.7315080669861E-01
206  2.0500000000000E+00  9.0897828134600E-02 -1.6328109295768E-01  1.4674468941372E-01
207  2.0600000000000E+00  7.6469324877162E-02 -1.3682591003725E-01  1.2210889854695E-01
208  2.0700000000000E+00  6.2868544698723E-02 -1.1211037187945E-01  9.9401748704304E-02
209  2.0800000000000E+00  5.0273517618932E-02 -8.9393582279647E-02  7.8781686073391E-02
210  2.0900000000000E+00  3.8843892245436E-02 -6.8906319946767E-02  6.0385890119500E-02
211  2.1000000000000E+00  2.8717484948666E-02 -5.0846506570927E-02  4.4327102726481E-02
212  2.1100000000000E+00  2.0009347335071E-02 -3.5377867468611E-02  3.0692692966617E-02
213  2.1200000000000E+00  1.2810156669603E-02 -2.2627746978770E-02  1.9543112291089E-02
214  2.1300000000000E+00  7.1876540541137E-03 -1.2690178758917E-02  1.0914757266618E-02
215  2.1400000000000E+00  3.1550599828607E-03 -5.5703909193240E-03  4.7730705666546E-03
216  2.1500000000000E+00  8.1386943373007E-04 -1.4376565984891E-03  1.2276122908833E-03
217  2.1600000000000E+00 -9.4608852043927E-07  1.6430153004383E-06 -1.0355305907854E-06
218  2.1700000000000E+00 -3.0504781833769E-05  5.3920133141581E-05 -4.5727061907676E-05
219  2.18  0. -0.  0.
220  2.19 -0.  0. -0.
221  2.20 -0.  0. -0.
222  2.21 -0.  0. -0.
223  2.22  0.  0.  0.
224  2.23  0.  0.  0.
225  2.24  0.  0.  0.
226  2.25  0.  0.  0.
227  2.26  0.  0.  0.
228  2.27  0.  0.  0.
229  2.28  0.  0.  0.
230  2.29  0.  0.  0.
231  2.30  0.  0.  0.
232  2.31  0.  0.  0.
233  2.32  0.  0.  0.
234  2.33  0.  0.  0.
235  2.34  0.  0.  0.
236  2.35  0.  0.  0.
237  2.36  0.  0.  0.
238  2.37  0.  0.  0.
239  2.38  0.  0.  0.
240  2.39  0.  0.  0.
241  2.40  0.  0.  0.
242  2.41  0.  0.  0.
243  2.42  0.  0.  0.
244  2.43  0.  0.  0.
245  2.44  0.  0.  0.
246  2.45  0.  0.  0.
247  2.46  0.  0.  0.
248  2.47  0.  0.  0.
249  2.48  0.  0.  0.
250  2.49  0.  0.  0.
251  2.50  0.  0.  0.
252  2.51  0.  0.  0.
253  2.52  0.  0.  0.
254  2.53  0.  0.  0.
255  2.54  0.  0.  0.
256  2.55  0.  0.  0.
257  2.56  0.  0.  0.
258  2.57  0.  0.  0.
259  2.58  0.  0.  0.
260  2.59  0.  0.  0.
261  2.60  0.  0.  0.
262  2.61  0.  0.  0.
263  2.62  0.  0.  0.
264  2.63  0.  0.  0.
265  2.64  0.  0.  0.
266  2.65  0.  0.  0.
267  2.66  0.  0.  0.
268  2.67  0.  0.  0.
269  2.68  0.  0.  0.
270  2.69  0.  0.  0.
271  2.70  0.  0.  0.
272  2.71  0.  0.  0.
273  2.72  0.  0.  0.
274  2.73  0.  0.  0.
275  2.74  0.  0.  0.
276  2.75  0.  0.  0.
277  2.76  0.  0.  0.
278  2.77  0.  0.  0.
279  2.78  0.  0.  0.
280  2.79  0.  0.  0.
281  2.80  0.  0.  0.
282  2.81  0.  0.  0.
283  2.82  0.  0.  0.
284  2.83  0.  0.  0.
285  2.84  0.  0.  0.
286  2.85  0.  0.  0.
287  2.86  0.  0.  0.
288  2.87  0.  0.  0.
289  2.88  0.  0.  0.
290  2.89  0.  0.  0.
291  2.90  0.  0.  0.
292  2.91  0.  0.  0.
293  2.92  0.  0.  0.
294  2.93  0.  0.  0.
295  2.94  0.  0.  0.
296  2.95  0.  0.  0.
297  2.96  0.  0.  0.
298  2.97  0.  0.  0.
299  2.98  0.  0.  0.
300  2.99  0.  0.  0.
301  3.00  0.  0.  0.
302  3.01  0.  0.  0.
303  3.02  0.  0.  0.
304  3.03  0.  0.  0.
305  3.04  0.  0.  0.
306  3.05  0.  0.  0.
307  3.06  0.  0.  0.
308  3.07  0.  0.  0.
309  3.08  0.  0.  0.
310  3.09  0.  0.  0.
311  3.10  0.  0.  0.
312  3.11  0.  0.  0.
313  3.12  0.  0.  0.
314  3.13  0.  0.  0.
315  3.14  0.  0.  0.
316  3.15  0.  0.  0.
317  3.16  0.  0.  0.
318  3.17  0.  0.  0.
319  3.18  0.  0.  0.
320  3.19  0.  0.  0.
321  3.20  0.  0.  0.
322  3.21  0.  0.  0.
323  3.22  0.  0.  0.
324  3.23  0.  0.  0.
325  3.24  0.  0.  0.
326  3.25  0.  0.  0.
327  3.26  0.  0.  0.
328  3.27  0.  0.  0.
329  3.28  0.  0.  0.
330  3.29  0.  0.  0.
331  3.30  0.  0.  0.
332  3.31  0.  0.  0.
333  3.32  0.  0.  0.
334  3.33  0.  0.  0.
335  3.34  0.  0.  0.
336  3.35  0.  0.  0.
337  3.36  0.  0.  0.
338  3.37  0.  0.  0.
339  3.38  0.  0.  0.
340  3.39  0.  0.  0.
341  3.40  0.  0.  0.
342  3.41  0.  0.  0.
343  3.42  0.  0.  0.
344  3.43  0.  0.  0.
345  3.44  0.  0.  0.
346  3.45  0.  0.  0.
347  3.46  0.  0.  0.
348  3.47  0.  0.  0.
349  3.48  0.  0.  0.
350  3.49  0.  0.  0.
351  3.50  0.  0.  0.
352  3.51  0.  0.  0.
353  3.52  0.  0.  0.
354  3.53  0.  0.  0.
355  3.54  0.  0.  0.
356  3.55  0.  0.  0.
357  3.56  0.  0.  0.
358  3.57  0.  0.  0.
359  3.58  0.  0.  0.
360  3.59  0.  0.  0.
361  3.60  0.  0.  0.
362  3.61  0.  0.  0.
363  3.62  0.  0.  0.
364  3.63  0.  0.  0.
365  3.64  0.  0.  0.
366  3.65  0.  0.  0.
367  3.66  0.  0.  0.
368  3.67  0.  0.  0.
369  3.68  0.  0.  0.
370  3.69  0.  0.  0.
371  3.70  0.  0.  0.
372  3.71  0.  0.  0.
373  3.72  0.  0.  0.
374  3.73  0.  0.  0.
375  3.74  0.  0.  0.
376  3.75  0.  0.  0.
377  3.76  0.  0.  0.
378  3.77  0.  0.  0.
379  3.78  0.  0.  0.
380  3.79  0.  0.  0.
381  3.80  0.  0.  0.
382  3.81  0.  0.  0.
383  3.82  0.  0.  0.
384  3.83  0.  0.  0.
385  3.84  0.  0.  0.
386  3.85  0.  0.  0.
387  3.86  0.  0.  0.
388  3.87  0.  0.  0.
389  3.88  0.  0.  0.
390  3.89  0.  0.  0.
391  3.90  0.  0.  0.
392  3.91  0.  0.  0.
393  3.92  0.  0.  0.
394  3.93  0.  0.  0.
395  3.94  0.  0.  0.
396  3.95  0.  0.  0.
397  3.96  0.  0.  0.
398  3.97  0.  0.  0.
399  3.98  0.  0.  0.
400  3.99  0.  0.  0.
401  4.00  0.  0.  0.
402  4.01  0.  0.  0.
403  4.02  0.  0.  0.
404  4.03  0.  0.  0.
405  4.04  0.  0.  0.
406  4.05  0.  0.  0.
407  4.06  0.  0.  0.
408  4.07  0.  0.  0.
409  4.08  0.  0.  0.
410  4.09  0.  0.  0.
411  4.10  0.  0.  0.
412  4.11  0.  0.  0.
413  4.12  0.  0.  0.
414  4.13  0.  0.  0.
415  4.14  0.  0.  0.
416  4.15  0.  0.  0.
417  4.16  0.  0.  0.
418  4.17  0.  0.  0.
419  4.18  0.  0.  0.
420  4.19  0.  0.  0.
421  4.20  0.  0.  0.
422  4.21  0.  0.  0.
423  4.22  0.  0.  0.
424  4.23  0.  0.  0.
425  4.24  0.  0.  0.
426  4.25  0.  0.  0.
427  4.26  0.  0.  0.
428  4.27  0.  0.  0.
429  4.28  0.  0.  0.
430  4.29  0.  0.  0.
431  4.30  0.  0.  0.
432  4.31  0.  0.  0.
433  4.32  0.  0.  0.
434  4.33  0.  0.  0.
435  4.34  0.  0.  0.
436  4.35  0.  0.  0.
437  4.36  0.  0.  0.
438  4.37  0.  0.  0.
439  4.38  0.  0.  0.
440  4.39  0.  0.  0.
441  4.40  0.  0.  0.
442  4.41  0.  0.  0.
443  4.42  0.  0.  0.
444  4.43  0.  0.  0.
445  4.44  0.  0.  0.
446  4.45  0.  0.  0.
447  4.46  0.  0.  0.
448  4.47  0.  0.  0.
449  4.48  0.  0.  0.
450  4.49  0.  0.  0.
451  4.50  0.  0.  0.
452  4.51  0.  0.  0.
453  4.52  0.  0.  0.
454  4.53  0.  0.  0.
455  4.54  0.  0.  0.
456  4.55  0.  0.  0.
457  4.56  0.  0.  0.
458  4.57  0.  0.  0.
459  4.58  0.  0.  0.
460  4.59  0.  0.  0.
461  4.60  0.  0.  0.
462  4.61  0.  0.  0.
463  4.62  0.  0.  0.
464  4.63  0.  0.  0.
465  4.64  0.  0.  0.
466  4.65  0.  0.  0.
467  4.66  0.  0.  0.
468  4.67  0.  0.  0.
469  4.68  0.  0.  0.
470  4.69  0.  0.  0.
471  4.70  0.  0.  0.
472  4.71  0.  0.  0.
473  4.72  0.  0.  0.
474  4.73  0.  0.  0.
475  4.74  0.  0.  0.
476  4.75  0.  0.  0.
477  4.76  0.  0.  0.
478  4.77  0.  0.  0.
479  4.78  0.  0.  0.
480  4.79  0.  0.  0.
481  4.80  0.  0.  0.
482  4.81  0.  0.  0.
483  4.82  0.  0.  0.
484  4.83  0.  0.  0.
485  4.84  0.  0.  0.
486  4.85  0.  0.  0.
487  4.86  0.  0.  0.
488  4.87  0.  0.  0.
489  4.88  0.  0.  0.
490  4.89  0.  0.  0.
491  4.90  0.  0.  0.
492  4.91  0.  0.  0.
493  4.92  0.  0.  0.
494  4.93  0.  0.  0.
495  4.94  0.  0.  0.
496  4.95  0.  0.  0.
497  4.96  0.  0.  0.
498  4.97  0.  0.  0.
499  4.98  0.  0.  0.
500  4.99  0.  0.  0.
501  5.00  0.  0.  0.
502  5.01  0.  0.  0.
503  5.02  0.  0.  0.
504  5.03  0.  0.  0.
505  5.04  0.  0.  0.
506  5.05  0.  0.  0.
507  5.06  0.  0.  0.
508  5.07  0.  0.  0.
509  5.08  0.  0.  0.
510  5.09  0.  0.  0.
511  5.10  0.  0.  0.
512  5.11  0.  0.  0.
513  5.12  0.  0.  0.
514  5.13  0.  0.  0.
515  5.14  0.  0.  0.
516  5.15  0.  0.  0.
517  5.16  0.  0.  0.
518  5.17  0.  0.  0.
519  5.18  0.  0.  0.
520  5.19  0.  0.  0.
521  5.20  0.  0.  0.
522  5.21  0.  0.  0.
523  5.22  0.  0.  0.
524  5.23  0.  0.  0.
525  5.24  0.  0.  0.
526  5.25  0.  0.  0.
527  5.26  0.  0.  0.
528  5.27  0.  0.  0.
529  5.28  0.  0.  0.
530  5.29  0.  0.  0.
531  5.30  0.  0.  0.
532  5.31  0.  0.  0.
533  5.32  0.  0.  0.
534  5.33  0.  0.  0.
535  5.34  0.  0.  0.
536  5.35  0.  0.  0.
537  5.36  0.  0.  0.
538  5.37  0.  0.  0.
539  5.38  0.  0.  0.
540  5.39  0.  0.  0.
541  5.40  0.  0.  0.
542  5.41  0.  0.  0.
543  5.42  0.  0.  0.
544  5.43  0.  0.  0.
545  5.44  0.  0.  0.
546  5.45  0.  0.  0.
547  5.46  0.  0.  0.
548  5.47  0.  0.  0.
549  5.48  0.  0.  0.
550  5.49  0.  0.  0.
551  5.50  0.  0.  0.
552  5.51  0.  0.  0.
553  5.52  0.  0.  0.
554  5.53  0.  0.  0.
555  5.54  0.  0.  0.
556  5.55  0.  0.  0.
557  5.56  0.  0.  0.
558  5.57  0.  0.  0.
559  5.58  0.  0.  0.
560  5.59  0.  0.  0.
561  5.60  0.  0.  0.
562  5.61  0.  0.  0.
563  5.62  0.  0.  0.
564  5.63  0.  0.  0.
565  5.64  0.  0.  0.
566  5.65  0.  0.  0.
567  5.66  0.  0.  0.
568  5.67  0.  0.  0.
569  5.68  0.  0.  0.
570  5.69  0.  0.  0.
571  5.70  0.  0.  0.
572  5.71  0.  0.  0.
573  5.72  0.  0.  0.
574  5.73  0.  0.  0.
575  5.74  0.  0.  0.
576  5.75  0.  0.  0.
577  5.76  0.  0.  0.
578  5.77  0.  0.  0.
579  5.78  0.  0.  0.
580  5.79  0.  0.  0.
581  5.80  0.  0.  0.
582  5.81  0.  0.  0.
583  5.82  0.  0.  0.
584  5.83  0.  0.  0.
585  5.84  0.  0.  0.
586  5.85  0.  0.  0.
587  5.86  0.  0.  0.
588  5.87  0.  0.  0.
589  5.88  0.  0.  0.
590  5.89  0.  0.  0.
591  5.90  0.  0.  0.
592  5.91  0.  0.  0.
593  5.92  0.  0.  0.
594  5.93  0.  0.  0.
595  5.94  0.  0.  0.
596  5.95  0.  0.  0.
597  5.96  0.  0.  0.
598  5.97  0.  0.  0.
599  5.98  0.  0.  0.
600  5.99  0.  0.  0.
1                         5.7211696665886E+00  7.3581785466024E-01
1  0.0000000000000E+00 -2.3864559633990E-11  4.0126709247024E-11
2  1.0000000000000E-02  2.4772377110189E-04 -1.3101138127415E-04
3  2.0000000000000E-02  9.9097400026857E-04 -5.2420547763421E-04
4  3.0000000000000E-02  2.2299855234034E-03 -1.1800592193507E-03
5  4.0000000000000E-02  3.9651433739147E-03 -2.0993577534613E-03
6  5.0000000000000E-02  6.1969732869366E-03 -3.2831799126355E-03
7  6.0000000000000E-02  8.9261284926402E-03 -4.7328780189363E-03
8  7.0000000000000E-02  1.2153372885397E-02 -6.4500521687059E-03
9  8.0000000000000E-02  1.5879560679423E-02 -8.4365191849301E-03
10  9.0000000000000E-02  2.0105612684642E-02 -1.0694276462216E-02
11  1.0000000000000E-01  2.4832489358889E-02 -1.3225460967026E-02
12  1.1000000000000E-01  3.0061160813892E-02 -1.6032303691387E-02
13  1.2000000000000E-01  3.5792573972695E-02 -1.9117079891961E-02
14  1.3000000000000E-01  4.2027617095210E-02 -2.2482055477896E-02
15  1.4000000000000E-01  4.8767081906222E-02 -2.6129429939898E-02
16  1.5000000000000E-01  5.6011623576340E-02 -3.0061276239452E-02
17  1.6000000000000E-01  6.3761718821018E-02 -3.4279478100783E-02
18  1.7000000000000E-01  7.2017622395715E-02 -3.8785665168963E-02
19  1.8000000000000E-01  8.0779322276488E-02 -4.3581146515159E-02
20  1.9000000000000E-01  9.0046493824751E-02 -4.8666842984597E-02
21  2.0000000000000E-01  9.9818453242442E-02 -5.4043218893915E-02
22  2.1000000000000E-01  1.1009411062954E-01 -5.9710213592472E-02
23  2.2000000000000E-01  1.2087192295955E-01 -6.5667173406546E-02
24  2.3000000000000E-01  1.3214984729035E-01 -7.1912784486284E-02
25  2.4000000000000E-01  1.4392529452747E-01 -7.8445007072794E-02
26  2.5000000000000E-01  1.5619508405488E-01 -8.5261011696732E-02
27  2.6000000000000E-01  1.6895539954402E-01 -9.2357117810436E-02
28  2.7000000000000E-01  1.8220174624584E-01 -9.9728735342845E-02
29  2.8000000000000E-01  1.9592891006274E-01 -1.0737030965048E-01
30  2.9000000000000E-01  2.1013091868736E-01 -1.1527527031859E-01
31  3.0000000000000E-01  2.2480100508390E-01 -1.2343598424430E-01