Pb    ONCVPSP-4.0.1  r_core=   1.40407   1.50857   1.40407   1.40407
82.0000     22.0000      220131    zatom,zion,pspd
8      11   3     4   600     0    pspcod,pspxc,lmax,lloc,mmax,r2well
5.99000000  6.00000000  0.00000000    rchrg fchrg qchrg
2     2     2     1     0    nproj
1     1           extension_switch
0                         1.5655586816502E+01  1.9145827838720E+00
1  0.0000000000000E+00  2.9495856868067E-09 -8.3438120718204E-09
2  1.0000000000000E-02  7.6229880829899E-02 -1.1425342161133E-02
3  2.0000000000000E-02  1.5235336715170E-01 -2.2919444065177E-02
4  3.0000000000000E-02  2.2826281041401E-01 -3.4546917216153E-02
5  4.0000000000000E-02  3.0384808961779E-01 -4.6364176881467E-02
6  5.0000000000000E-02  3.7899546341186E-01 -5.8415592374115E-02
7  6.0000000000000E-02  4.5358652600954E-01 -7.0729929295895E-02
8  7.0000000000000E-02  5.2749729797906E-01 -8.3317171003096E-02
9  8.0000000000000E-02  6.0059748001087E-01 -9.6165798212344E-02
10  9.0000000000000E-02  6.7274989419674E-01 -1.0924059557490E-01
11  1.0000000000000E-01  7.4381013324478E-01 -1.2248104242980E-01
12  1.1000000000000E-01  8.1362643348770E-01 -1.3580033204869E-01
13  1.2000000000000E-01  8.8203978261656E-01 -1.4908504978648E-01
14  1.3000000000000E-01  9.4888426789267E-01 -1.6219552595023E-01
15  1.4000000000000E-01  1.0139876652672E+00 -1.7496686421002E-01
16  1.5000000000000E-01  1.0771722644852E+00 -1.8721063132409E-01
17  1.6000000000000E-01  1.1382559199797E+00 -1.9871717916160E-01
18  1.7000000000000E-01  1.1970533122918E+00 -2.0925855580241E-01
19  1.8000000000000E-01  1.2533773999822E+00 -2.1859194918462E-01
20  1.9000000000000E-01  1.3070410376441E+00 -2.2646359464659E-01
21  2.0000000000000E-01  1.3578587317690E+00 -2.3261306704141E-01
22  2.1000000000000E-01  1.4056485029472E+00 -2.3677786912141E-01
23  2.2000000000000E-01  1.4502338202735E+00 -2.3869822080237E-01
24  2.3000000000000E-01  1.4914455719299E+00 -2.3812194888110E-01
25  2.4000000000000E-01  1.5291240347774E+00 -2.3480937391427E-01
26  2.5000000000000E-01  1.5631208054369E+00 -2.2853809034229E-01
27  2.6000000000000E-01  1.5933006557747E+00 -2.1910753758187E-01
28  2.7000000000000E-01  1.6195432769360E+00 -2.0634326369041E-01
29  2.8000000000000E-01  1.6417448780617E+00 -1.9010078924809E-01
30  2.9000000000000E-01  1.6598196085307E+00 -1.7026898719027E-01
31  3.0000000000000E-01  1.6737007759535E+00 -1.4677290428425E-01
32  3.1000000000000E-01  1.6833418361143E+00 -1.1957596157467E-01
33  3.2000000000000E-01  1.6887171355452E+00 -8.8681484173033E-02
34  3.3000000000000E-01  1.6898223923202E+00 -5.4133524961814E-02
35  3.4000000000000E-01  1.6866749058707E+00 -1.6016961817168E-02
36  3.5000000000000E-01  1.6793134920389E+00  2.5543136499657E-02
37  3.6000000000000E-01  1.6677981450836E+00  7.0382864910111E-02
38  3.7000000000000E-01  1.6522094338180E+00  1.1830153062326E-01
39  3.8000000000000E-01  1.6326476443626E+00  1.6906435431816E-01
40  3.9000000000000E-01  1.6092316870380E+00  2.2240576825550E-01
41  4.0000000000000E-01  1.5820977895748E+00  2.7803324264935E-01
42  4.1000000000000E-01  1.5513980029911E+00  3.3563156007093E-01
43  4.2000000000000E-01  1.5172985500786E+00  3.9486744782637E-01
44  4.3000000000000E-01  1.4799780493756E+00  4.5539447037865E-01
45  4.4000000000000E-01  1.4396256497129E+00  5.1685807815777E-01
46  4.5000000000000E-01  1.3964391118516E+00  5.7890070566767E-01
47  4.6000000000000E-01  1.3506228743540E+00  6.4116681074455E-01
48  4.7000000000000E-01  1.3023861406209E+00  7.0330774819115E-01
49  4.8000000000000E-01  1.2519410230009E+00  7.6498637479415E-01
50  4.9000000000000E-01  1.1995007780337E+00  8.2588128885973E-01
51  5.0000000000000E-01  1.1452781642905E+00  8.8569061575826E-01
52  5.1000000000000E-01  1.0894839509517E+00  9.4413526138378E-01
53  5.2000000000000E-01  1.0323256013078E+00  1.0009615676895E+00
54  5.3000000000000E-01  9.7400615086044E-01  1.0559433182977E+00
55  5.4000000000000E-01  9.1472329473246E-01  1.1088830573021E+00
56  5.5000000000000E-01  8.5466869379900E-01  1.1596127004544E+00
57  5.6000000000000E-01  7.9402750341967E-01  1.2079934345943E+00
58  5.7000000000000E-01  7.3297812303558E-01  1.2539149180774E+00
59  5.8000000000000E-01  6.7169215930709E-01  1.2972938116916E+00
60  5.9000000000000E-01  6.1033459004778E-01  1.3380716857432E+00
61  6.0000000000000E-01  5.4906411108125E-01  1.3762123642757E+00
62  6.1000000000000E-01  4.8803364343415E-01  1.4116987813780E+00
63  6.2000000000000E-01  4.2739097409510E-01  1.4445294369273E+00
64  6.3000000000000E-01  3.6727950001893E-01  1.4747145495792E+00
65  6.4000000000000E-01  3.0783904222964E-01  1.5022720131015E+00
66  6.5000000000000E-01  2.4920669484863E-01  1.5272232680337E+00
67  6.6000000000000E-01  1.9151767270490E-01  1.5495892039655E+00
68  6.7000000000000E-01  1.3490612091052E-01  1.5693862083594E+00
69  6.8000000000000E-01  7.9505850426311E-02  1.5866224757351E+00
70  6.9000000000000E-01  2.5450965197376E-02  1.6012946861967E+00
71  7.0000000000000E-01 -2.7123651115287E-02  1.6133851547882E+00
72  7.1000000000000E-01 -7.8082017487915E-02  1.6228595431320E+00
73  7.2000000000000E-01 -1.2728693157522E-01  1.6296652124339E+00
74  7.3000000000000E-01 -1.7460005926382E-01  1.6337302824699E+00
75  7.4000000000000E-01 -2.1988225218186E-01  1.6349634448973E+00
76  7.5000000000000E-01 -2.6299410174143E-01  1.6332545614963E+00
77  7.6000000000000E-01 -3.0379673206535E-01  1.6284760591375E+00
78  7.7000000000000E-01 -3.4215282770558E-01  1.6204851137764E+00
79  7.8000000000000E-01 -3.7792788554274E-01  1.6091265960498E+00
80  7.9000000000000E-01 -4.1099167381556E-01  1.5942367315231E+00
81  8.0000000000000E-01 -4.4121987501734E-01  1.5756474097608E+00
82  8.1000000000000E-01 -4.6849588356204E-01  1.5531910586116E+00
83  8.2000000000000E-01 -4.9271272380848E-01  1.5267059838283E+00
84  8.3000000000000E-01 -5.1377504937247E-01  1.4960420597886E+00
85  8.4000000000000E-01 -5.3160118077374E-01  1.4610666449955E+00
86  8.5000000000000E-01 -5.4612513546511E-01  1.4216705865459E+00
87  8.6000000000000E-01 -5.5729860226362E-01  1.3777741711137E+00
88  8.7000000000000E-01 -5.6509281121661E-01  1.3293328764160E+00
89  8.8000000000000E-01 -5.6950025003576E-01  1.2763427767560E+00
90  8.9000000000000E-01 -5.7053617944354E-01  1.2188454591344E+00
91  9.0000000000000E-01 -5.6823990209748E-01  1.1569323126004E+00
92  9.1000000000000E-01 -5.6267574316293E-01  1.0907480628998E+00
93  9.2000000000000E-01 -5.5393370504504E-01  1.0204934369314E+00
94  9.3000000000000E-01 -5.4212976419022E-01  9.4642685682929E-01
95  9.4000000000000E-01 -5.2740578413195E-01  8.6886508137881E-01
96  9.5000000000000E-01 -5.0992902596647E-01  7.8818273259123E-01
97  9.6000000000000E-01 -4.8989124506546E-01  7.0481066723694E-01
98  9.7000000000000E-01 -4.6750737091301E-01  6.1923317650163E-01
99  9.8000000000000E-01 -4.4301377533089E-01  5.3198402123345E-01
100  9.9000000000000E-01 -4.1666614285086E-01  4.4364133496023E-01
101  1.0000000000000E+00 -3.8873696542991E-01  3.5482145146628E-01
102  1.0100000000000E+00 -3.5951269189865E-01  2.6617173768810E-01
103  1.0200000000000E+00 -3.2929057031060E-01  1.7836253550687E-01
104  1.0300000000000E+00 -2.9837522853871E-01  9.2078337151637E-02
105  1.0400000000000E+00 -2.6707504488573E-01  8.0083379137602E-03
106  1.0500000000000E+00 -2.3569836599249E-01 -7.3163473716194E-02
107  1.0600000000000E+00 -2.0454963379281E-01 -1.5076851498003E-01
108  1.0700000000000E+00 -1.7392548658096E-01 -2.2416391324287E-01
109  1.0800000000000E+00 -1.4411090132255E-01 -2.9274272573696E-01
110  1.0900000000000E+00 -1.1537544509470E-01 -3.5594388183546E-01
111  1.1000000000000E+00 -8.7969702941376E-02 -4.1326165623031E-01
112  1.1100000000000E+00 -6.2121947472774E-02 -4.6425448651342E-01
113  1.1200000000000E+00 -3.8035112227419E-02 -5.0855295770649E-01
114  1.1300000000000E+00 -1.5884126216446E-02 -5.4586678907356E-01
115  1.1400000000000E+00  4.1863387648509E-03 -5.7599067492754E-01
116  1.1500000000000E+00  2.2063663420236E-02 -5.9880885076165E-01
117  1.1600000000000E+00  3.7668582152890E-02 -6.1429827861093E-01
118  1.1700000000000E+00  5.0955962292991E-02 -6.2253037054683E-01
119  1.1800000000000E+00  6.1915042972131E-02 -6.2367119632302E-01
120  1.1900000000000E+00  7.0569125212739E-02 -6.1798014961083E-01
121  1.2000000000000E+00  7.6974715137780E-02 -6.0580707683945E-01
122  1.2100000000000E+00  8.1220132540290E-02 -5.8758790226215E-01
123  1.2200000000000E+00  8.3423607379003E-02 -5.6383881248801E-01
124  1.2300000000000E+00  8.3730896701491E-02 -5.3514909224124E-01
125  1.2400000000000E+00  8.2312463936401E-02 -5.0217273023591E-01
126  1.2500000000000E+00  7.9360271247538E-02 -4.6561893921995E-01
127  1.2600000000000E+00  7.5084243439659E-02 -4.2624175668329E-01
128  1.2700000000000E+00  6.9708468698197E-02 -3.8482891228893E-01
129  1.2800000000000E+00  6.3467207004701E-02 -3.4219016411482E-01
130  1.2900000000000E+00  5.6600781451949E-02 -2.9914531850491E-01
131  1.3000000000000E+00  4.9351426641488E-02 -2.5651214375581E-01
132  1.3100000000000E+00  4.1959206909112E-02 -2.1509451010000E-01
133  1.3200000000000E+00  3.4656961762999E-02 -1.7566734218209E-01
134  1.3300000000000E+00  2.7662376535698E-02 -1.3895201123576E-01
135  1.3400000000000E+00  2.1165457137860E-02 -1.0558069886512E-01
136  1.3500000000000E+00  1.5320056310889E-02 -7.6072256281575E-02
137  1.3600000000000E+00  1.0280536492996E-02 -5.0931371100634E-02
138  1.3700000000000E+00  6.1694354832028E-03 -3.0562458811137E-02
139  1.3800000000000E+00  3.0736716696523E-03 -1.5259468901143E-02
140  1.3900000000000E+00  1.0379854198083E-03 -5.1757388299534E-03
141  1.4000000000000E+00  1.0278988904483E-04 -5.1613994770422E-04
142  1.4100000000000E+00 -1.1145275081735E-05  5.6200572034304E-05
143  1.4200000000000E+00  1.6566561206617E-06 -8.3233558919910E-06
144  1.43 -0.  0.
145  1.44  0.  0.
146  1.45  0.  0.
147  1.46  0.  0.
148  1.47  0.  0.
149  1.48  0.  0.
150  1.49  0.  0.
151  1.50  0.  0.
152  1.51  0.  0.
153  1.52  0.  0.
154  1.53  0.  0.
155  1.54  0.  0.
156  1.55  0.  0.
157  1.56  0.  0.
158  1.57  0.  0.
159  1.58  0.  0.
160  1.59  0.  0.
161  1.60  0.  0.
162  1.61  0.  0.
163  1.62  0.  0.
164  1.63  0.  0.
165  1.64  0.  0.
166  1.65  0.  0.
167  1.66  0.  0.
168  1.67  0.  0.
169  1.68  0.  0.
170  1.69  0.  0.
171  1.70  0.  0.
172  1.71  0.  0.
173  1.72  0.  0.
174  1.73  0.  0.
175  1.74  0.  0.
176  1.75  0.  0.
177  1.76  0.  0.
178  1.77  0.  0.
179  1.78  0.  0.
180  1.79  0.  0.
181  1.80  0.  0.
182  1.81  0.  0.
183  1.82  0.  0.
184  1.83  0.  0.
185  1.84  0.  0.
186  1.85  0.  0.
187  1.86  0.  0.
188  1.87  0.  0.
189  1.88  0.  0.
190  1.89  0.  0.
191  1.90  0.  0.
192  1.91  0.  0.
193  1.92  0.  0.
194  1.93  0.  0.
195  1.94  0.  0.
196  1.95  0.  0.
197  1.96  0.  0.
198  1.97  0.  0.
199  1.98  0.  0.
200  1.99  0.  0.
201  2.00  0.  0.
202  2.01  0.  0.
203  2.02  0.  0.
204  2.03  0.  0.
205  2.04  0.  0.
206  2.05  0.  0.
207  2.06  0.  0.
208  2.07  0.  0.
209  2.08  0.  0.
210  2.09  0.  0.
211  2.10  0.  0.
212  2.11  0.  0.
213  2.12  0.  0.
214  2.13  0.  0.
215  2.14  0.  0.
216  2.15  0.  0.
217  2.16  0.  0.
218  2.17  0.  0.
219  2.18  0.  0.
220  2.19  0.  0.
221  2.20  0.  0.
222  2.21  0.  0.
223  2.22  0.  0.
224  2.23  0.  0.
225  2.24  0.  0.
226  2.25  0.  0.
227  2.26  0.  0.
228  2.27  0.  0.
229  2.28  0.  0.
230  2.29  0.  0.
231  2.30  0.  0.
232  2.31  0.  0.
233  2.32  0.  0.
234  2.33  0.  0.
235  2.34  0.  0.
236  2.35  0.  0.
237  2.36  0.  0.
238  2.37  0.  0.
239  2.38  0.  0.
240  2.39  0.  0.
241  2.40  0.  0.
242  2.41  0.  0.
243  2.42  0.  0.
244  2.43  0.  0.
245  2.44  0.  0.
246  2.45  0.  0.
247  2.46  0.  0.
248  2.47  0.  0.
249  2.48  0.  0.
250  2.49  0.  0.
251  2.50  0.  0.
252  2.51  0.  0.
253  2.52  0.  0.
254  2.53  0.  0.
255  2.54  0.  0.
256  2.55  0.  0.
257  2.56  0.  0.
258  2.57  0.  0.
259  2.58  0.  0.
260  2.59  0.  0.
261  2.60  0.  0.
262  2.61  0.  0.
263  2.62  0.  0.
264  2.63  0.  0.
265  2.64  0.  0.
266  2.65  0.  0.
267  2.66  0.  0.
268  2.67  0.  0.
269  2.68  0.  0.
270  2.69  0.  0.
271  2.70  0.  0.
272  2.71  0.  0.
273  2.72  0.  0.
274  2.73  0.  0.
275  2.74  0.  0.
276  2.75  0.  0.
277  2.76  0.  0.
278  2.77  0.  0.
279  2.78  0.  0.
280  2.79  0.  0.
281  2.80  0.  0.
282  2.81  0.  0.
283  2.82  0.  0.
284  2.83  0.  0.
285  2.84  0.  0.
286  2.85  0.  0.
287  2.86  0.  0.
288  2.87  0.  0.
289  2.88  0.  0.
290  2.89  0.  0.
291  2.90  0.  0.
292  2.91  0.  0.
293  2.92  0.  0.
294  2.93  0.  0.
295  2.94  0.  0.
296  2.95  0.  0.
297  2.96  0.  0.
298  2.97  0.  0.
299  2.98  0.  0.
300  2.99  0.  0.
301  3.00  0.  0.
302  3.01  0.  0.
303  3.02  0.  0.
304  3.03  0.  0.
305  3.04  0.  0.
306  3.05  0.  0.
307  3.06  0.  0.
308  3.07  0.  0.
309  3.08  0.  0.
310  3.09  0.  0.
311  3.10  0.  0.
312  3.11  0.  0.
313  3.12  0.  0.
314  3.13  0.  0.
315  3.14  0.  0.
316  3.15  0.  0.
317  3.16  0.  0.
318  3.17  0.  0.
319  3.18  0.  0.
320  3.19  0.  0.
321  3.20  0.  0.
322  3.21  0.  0.
323  3.22  0.  0.
324  3.23  0.  0.
325  3.24  0.  0.
326  3.25  0.  0.
327  3.26  0.  0.
328  3.27  0.  0.
329  3.28  0.  0.
330  3.29  0.  0.
331  3.30  0.  0.
332  3.31  0.  0.
333  3.32  0.  0.
334  3.33  0.  0.
335  3.34  0.  0.
336  3.35  0.  0.
337  3.36  0.  0.
338  3.37  0.  0.
339  3.38  0.  0.
340  3.39  0.  0.
341  3.40  0.  0.
342  3.41  0.  0.
343  3.42  0.  0.
344  3.43  0.  0.
345  3.44  0.  0.
346  3.45  0.  0.
347  3.46  0.  0.
348  3.47  0.  0.
349  3.48  0.  0.
350  3.49  0.  0.
351  3.50  0.  0.
352  3.51  0.  0.
353  3.52  0.  0.
354  3.53  0.  0.
355  3.54  0.  0.
356  3.55  0.  0.
357  3.56  0.  0.
358  3.57  0.  0.
359  3.58  0.  0.
360  3.59  0.  0.
361  3.60  0.  0.
362  3.61  0.  0.
363  3.62  0.  0.
364  3.63  0.  0.
365  3.64  0.  0.
366  3.65  0.  0.
367  3.66  0.  0.
368  3.67  0.  0.
369  3.68  0.  0.
370  3.69  0.  0.
371  3.70  0.  0.
372  3.71  0.  0.
373  3.72  0.  0.
374  3.73  0.  0.
375  3.74  0.  0.
376  3.75  0.  0.
377  3.76  0.  0.
378  3.77  0.  0.
379  3.78  0.  0.
380  3.79  0.  0.
381  3.80  0.  0.
382  3.81  0.  0.
383  3.82  0.  0.
384  3.83  0.  0.
385  3.84  0.  0.
386  3.85  0.  0.
387  3.86  0.  0.
388  3.87  0.  0.
389  3.88  0.  0.
390  3.89  0.  0.
391  3.90  0.  0.
392  3.91  0.  0.
393  3.92  0.  0.
394  3.93  0.  0.
395  3.94  0.  0.
396  3.95  0.  0.
397  3.96  0.  0.
398  3.97  0.  0.
399  3.98  0.  0.
400  3.99  0.  0.
401  4.00  0.  0.
402  4.01  0.  0.
403  4.02  0.  0.
404  4.03  0.  0.
405  4.04  0.  0.
406  4.05  0.  0.
407  4.06  0.  0.
408  4.07  0.  0.
409  4.08  0.  0.
410  4.09  0.  0.
411  4.10  0.  0.
412  4.11  0.  0.
413  4.12  0.  0.
414  4.13  0.  0.
415  4.14  0.  0.
416  4.15  0.  0.
417  4.16  0.  0.
418  4.17  0.  0.
419  4.18  0.  0.
420  4.19  0.  0.
421  4.20  0.  0.
422  4.21  0.  0.
423  4.22  0.  0.
424  4.23  0.  0.
425  4.24  0.  0.
426  4.25  0.  0.
427  4.26  0.  0.
428  4.27  0.  0.
429  4.28  0.  0.
430  4.29  0.  0.
431  4.30  0.  0.
432  4.31  0.  0.
433  4.32  0.  0.
434  4.33  0.  0.
435  4.34  0.  0.
436  4.35  0.  0.
437  4.36  0.  0.
438  4.37  0.  0.
439  4.38  0.  0.
440  4.39  0.  0.
441  4.40  0.  0.
442  4.41  0.  0.
443  4.42  0.  0.
444  4.43  0.  0.
445  4.44  0.  0.
446  4.45  0.  0.
447  4.46  0.  0.
448  4.47  0.  0.
449  4.48  0.  0.
450  4.49  0.  0.
451  4.50  0.  0.
452  4.51  0.  0.
453  4.52  0.  0.
454  4.53  0.  0.
455  4.54  0.  0.
456  4.55  0.  0.
457  4.56  0.  0.
458  4.57  0.  0.
459  4.58  0.  0.
460  4.59  0.  0.
461  4.60  0.  0.
462  4.61  0.  0.
463  4.62  0.  0.
464  4.63  0.  0.
465  4.64  0.  0.
466  4.65  0.  0.
467  4.66  0.  0.
468  4.67  0.  0.
469  4.68  0.  0.
470  4.69  0.  0.
471  4.70  0.  0.
472  4.71  0.  0.
473  4.72  0.  0.
474  4.73  0.  0.
475  4.74  0.  0.
476  4.75  0.  0.
477  4.76  0.  0.
478  4.77  0.  0.
479  4.78  0.  0.
480  4.79  0.  0.
481  4.80  0.  0.
482  4.81  0.  0.
483  4.82  0.  0.
484  4.83  0.  0.
485  4.84  0.  0.
486  4.85  0.  0.
487  4.86  0.  0.
488  4.87  0.  0.
489  4.88  0.  0.
490  4.89  0.  0.
491  4.90  0.  0.
492  4.91  0.  0.
493  4.92  0.  0.
494  4.93  0.  0.
495  4.94  0.  0.
496  4.95  0.  0.
497  4.96  0.  0.
498  4.97  0.  0.
499  4.98  0.  0.
500  4.99  0.  0.
501  5.00  0.  0.
502  5.01  0.  0.
503  5.02  0.  0.
504  5.03  0.  0.
505  5.04  0.  0.
506  5.05  0.  0.
507  5.06  0.  0.
508  5.07  0.  0.
509  5.08  0.  0.
510  5.09  0.  0.
511  5.10  0.  0.
512  5.11  0.  0.
513  5.12  0.  0.
514  5.13  0.  0.
515  5.14  0.  0.
516  5.15  0.  0.
517  5.16  0.  0.
518  5.17  0.  0.
519  5.18  0.  0.
520  5.19  0.  0.
521  5.20  0.  0.
522  5.21  0.  0.
523  5.22  0.  0.
524  5.23  0.  0.
525  5.24  0.  0.
526  5.25  0.  0.
527  5.26  0.  0.
528  5.27  0.  0.
529  5.28  0.  0.
530  5.29  0.  0.
531  5.30  0.  0.
532  5.31  0.  0.
533  5.32  0.  0.
534  5.33  0.  0.
535  5.34  0.  0.
536  5.35  0.  0.
537  5.36  0.  0.
538  5.37  0.  0.
539  5.38  0.  0.
540  5.39  0.  0.
541  5.40  0.  0.
542  5.41  0.  0.
543  5.42  0.  0.
544  5.43  0.  0.
545  5.44  0.  0.
546  5.45  0.  0.
547  5.46  0.  0.
548  5.47  0.  0.
549  5.48  0.  0.
550  5.49  0.  0.
551  5.50  0.  0.
552  5.51  0.  0.
553  5.52  0.  0.
554  5.53  0.  0.
555  5.54  0.  0.
556  5.55  0.  0.
557  5.56  0.  0.
558  5.57  0.  0.
559  5.58  0.  0.
560  5.59  0.  0.
561  5.60  0.  0.
562  5.61  0.  0.
563  5.62  0.  0.
564  5.63  0.  0.
565  5.64  0.  0.
566  5.65  0.  0.
567  5.66  0.  0.
568  5.67  0.  0.
569  5.68  0.  0.
570  5.69  0.  0.
571  5.70  0.  0.
572  5.71  0.  0.
573  5.72  0.  0.
574  5.73  0.  0.
575  5.74  0.  0.
576  5.75  0.  0.
577  5.76  0.  0.
578  5.77  0.  0.
579  5.78  0.  0.
580  5.79  0.  0.
581  5.80  0.  0.
582  5.81  0.  0.
583  5.82  0.  0.
584  5.83  0.  0.
585  5.84  0.  0.
586  5.85  0.  0.
587  5.86  0.  0.
588  5.87  0.  0.
589  5.88  0.  0.
590  5.89  0.  0.
591  5.90  0.  0.
592  5.91  0.  0.
593  5.92  0.  0.
594  5.93  0.  0.
595  5.94  0.  0.
596  5.95  0.  0.
597  5.96  0.  0.
598  5.97  0.  0.
599  5.98  0.  0.
600  5.99  0.  0.
1                         7.1876830877202E+00  1.1683277668811E+00
1  0.0000000000000E+00 -5.3437339692097E-09  1.2941601016531E-08
2  1.0000000000000E-02  1.5723995720814E-03 -1.6611959984470E-05
3  2.0000000000000E-02  6.2878732900109E-03 -7.5774509338437E-05
4  3.0000000000000E-02  1.4141132016166E-02 -2.0515062016804E-04
5  4.0000000000000E-02  2.5122983301593E-02 -4.4979632229639E-04
6  5.0000000000000E-02  3.9219776878039E-02 -8.7061466148475E-04
7  6.0000000000000E-02  5.6412650720958E-02 -1.5422452879175E-03
8  7.0000000000000E-02  7.6676599437097E-02 -2.5504422425688E-03
9  8.0000000000000E-02  9.9979392074017E-02 -3.9890054506712E-03
10  9.0000000000000E-02  1.2628037116522E-01 -5.9563428776285E-03
11  1.0000000000000E-01  1.5552916880228E-01 -8.5517499886558E-03
12  1.1000000000000E-01  1.8766437866949E-01 -1.1871500853006E-02
13  1.2000000000000E-01  2.2261222521026E-01 -1.6004850764288E-02
14  1.3000000000000E-01  2.6028527236080E-01 -2.1030053475080E-02
15  1.4000000000000E-01  3.0058121455015E-01 -2.7010496982315E-02
16  1.5000000000000E-01  3.4338179191206E-01 -3.3991060218271E-02
17  1.6000000000000E-01  3.8855186989338E-01 -4.1994789022276E-02
18  1.7000000000000E-01  4.3593872070587E-01 -5.1019983465818E-02
19  1.8000000000000E-01  4.8537154040704E-01 -6.1037780106051E-02
20  1.9000000000000E-01  5.3666123088506E-01 -7.1990302226622E-02
21  2.0000000000000E-01  5.8960047075498E-01 -8.3789438812974E-02
22  2.1000000000000E-01  6.4396409326068E-01 -9.6316299166186E-02
23  2.2000000000000E-01  6.9950978284293E-01 -1.0942137498485E-01
24  2.3000000000000E-01  7.5597909521861E-01 -1.2292542576827E-01
25  2.4000000000000E-01  8.1309879876623E-01 -1.3662108686841E-01
26  2.5000000000000E-01  8.7058252788312E-01 -1.5027518280952E-01
27  2.6000000000000E-01  9.2813273192756E-01 -1.6363171197843E-01
28  2.7000000000000E-01  9.8544289654161E-01 -1.7641545283722E-01
29  2.8000000000000E-01  1.0422000077217E+00 -1.8833612678903E-01
30  2.9000000000000E-01  1.0980872231099E+00 -1.9909303908278E-01
31  3.0000000000000E-01  1.1527867097568E+00 -2.0838010699720E-01
32  3.1000000000000E-01  1.2059826031787E+00 -2.1589117428703E-01
33  3.2000000000000E-01  1.2573640390071E+00 -2.2132550275713E-01
34  3.3000000000000E-01  1.3066282059896E+00 -2.2439332605850E-01
35  3.4000000000000E-01  1.3534833676272E+00 -2.2482134753135E-01
36  3.5000000000000E-01  1.3976517993550E+00 -2.2235806325594E-01
37  3.6000000000000E-01  1.4388725889237E+00 -2.1677879345989E-01
38  3.7000000000000E-01  1.4769042495150E+00 -2.0789031005675E-01
39  3.8000000000000E-01  1.5115270980882E+00 -1.9553495528654E-01
40  3.9000000000000E-01  1.5425453554700E+00 -1.7959415606450E-01
41  4.0000000000000E-01  1.5697889296830E+00 -1.5999125053682E-01
42  4.1000000000000E-01  1.5931148498593E+00 -1.3669355725448E-01
43  4.2000000000000E-01  1.6124083247018E+00 -1.0971363302515E-01
44  4.3000000000000E-01  1.6275834066842E+00 -7.9109682562224E-02
45  4.4000000000000E-01  1.6385832508882E+00 -4.4985101158052E-02
46  4.5000000000000E-01  1.6453799653876E+00 -7.4871503756306E-03
47  4.6000000000000E-01  1.6479740582450E+00  3.3195214229235E-02
48  4.7000000000000E-01  1.6463934942996E+00  7.6834325495942E-02
49  4.8000000000000E-01  1.6406923828313E+00  1.2316754104248E-01
50  4.9000000000000E-01  1.6309493246976E+00  1.7190166028129E-01
51  5.0000000000000E-01  1.6172654545010E+00  2.2271793286155E-01
52  5.1000000000000E-01  1.5997622195892E+00  2.7527755526753E-01
53  5.2000000000000E-01  1.5785789430755E+00  3.2922754035383E-01
54  5.3000000000000E-01  1.5538702224704E+00  3.8420683506393E-01
55  5.4000000000000E-01  1.5258032188245E+00  4.3985255470341E-01
56  5.5000000000000E-01  1.4945548934144E+00  4.9580619811681E-01
57  5.6000000000000E-01  1.4603092499027E+00  5.5171970707783E-01
58  5.7000000000000E-01  1.4232546395284E+00  6.0726123521403E-01
59  5.8000000000000E-01  1.3835811852411E+00  6.6212049684917E-01
60  5.9000000000000E-01  1.3414783777906E+00  7.1601357419170E-01
61  6.0000000000000E-01  1.2971328926873E+00  7.6868707219174E-01
62  6.1000000000000E-01  1.2507266717240E+00  8.1992152393119E-01
63  6.2000000000000E-01  1.2024353065100E+00  8.6953396534013E-01
64  6.3000000000000E-01  1.1524267543295E+00  9.1737961602860E-01
65  6.4000000000000E-01  1.1008604087644E+00  9.6335262271527E-01
66  6.5000000000000E-01  1.0478865390660E+00  1.0073858427108E+00
67  6.6000000000000E-01  9.9364610341443E-01  1.0494496667238E+00
68  6.7000000000000E-01  9.3827093216435E-01  1.0895499024273E+00
69  6.8000000000000E-01  8.8188426813112E-01  1.1277247622638E+00
70  6.9000000000000E-01  8.2460164213903E-01  1.1640410203789E+00
71  7.0000000000000E-01  7.6653205362630E-01  1.1985894238729E+00
72  7.1000000000000E-01  7.0777941828050E-01  1.2314794622677E+00
73  7.2000000000000E-01  6.4844423764599E-01  1.2628336157613E+00
74  7.3000000000000E-01  5.8862543957404E-01  1.2927812170762E+00
75  7.4000000000000E-01  5.2842233342711E-01  1.3214520731360E+00
76  7.5000000000000E-01  4.6793662023026E-01  1.3489700011301E+00
77  7.6000000000000E-01  4.0727439558919E-01  1.3754464385010E+00
78  7.7000000000000E-01  3.4654808223994E-01  1.4009742878462E+00
79  7.8000000000000E-01  2.8587822960463E-01  1.4256221555699E+00
80  7.9000000000000E-01  2.2539511971347E-01  1.4494291373321E+00
81  8.0000000000000E-01  1.6524012229535E-01  1.4724002939877E+00
82  8.1000000000000E-01  1.0556674668463E-01  1.4945029489210E+00
83  8.2000000000000E-01  4.6541344354961E-02  1.5156639217002E+00
84  8.3000000000000E-01 -1.1656576742675E-02  1.5357677940710E+00
85  8.4000000000000E-01 -6.8834456436482E-02  1.5546562828694E+00
86  8.5000000000000E-01 -1.2478722627147E-01  1.5721287708667E+00
87  8.6000000000000E-01 -1.7929830420700E-01  1.5879440213578E+00
88  8.7000000000000E-01 -2.3214104066184E-01  1.6018230759888E+00
89  8.8000000000000E-01 -2.8308060574338E-01  1.6134533084409E+00
90  8.9000000000000E-01 -3.3187629672409E-01  1.6224935797448E+00
91  9.0000000000000E-01 -3.7828423426950E-01  1.6285804147557E+00
92  9.1000000000000E-01 -4.2206040581713E-01  1.6313350942828E+00
93  9.2000000000000E-01 -4.6296400508761E-01  1.6303715340942E+00
94  9.3000000000000E-01 -5.0076100819812E-01  1.6253048010503E+00
95  9.4000000000000E-01 -5.3522791944938E-01  1.6157600984622E+00
96  9.5000000000000E-01 -5.6615561375441E-01  1.6013820378596E+00
97  9.6000000000000E-01 -5.9335319802863E-01  1.5818440030820E+00
98  9.7000000000000E-01 -6.1665181079494E-01  1.5568574052722E+00
99  9.8000000000000E-01 -6.3590827787115E-01  1.5261806241942E+00
100  9.9000000000000E-01 -6.5100854236300E-01  1.4896274324536E+00
101  1.0000000000000E+00 -6.6187078930658E-01  1.4470747047217E+00
102  1.0100000000000E+00 -6.6844818917531E-01  1.3984692239038E+00
103  1.0200000000000E+00 -6.7073119004223E-01  1.3438334102326E+00
104  1.0300000000000E+00 -6.6874929537220E-01  1.2832698172566E+00
105  1.0400000000000E+00 -6.6257227308319E-01  1.2169642603147E+00
106  1.0500000000000E+00 -6.5231075152031E-01  1.1451874679818E+00
107  1.0600000000000E+00 -6.3811616910881E-01  1.0682951745927E+00
108  1.0700000000000E+00 -6.2018005650024E-01  9.8672660181125E-01
109  1.0800000000000E+00 -5.9873264276483E-01  9.0100130873486E-01
110  1.0900000000000E+00 -5.7404079030045E-01  8.1171442243936E-01
111  1.1000000000000E+00 -5.4640527645465E-01  7.1953029374419E-01
112  1.1100000000000E+00 -5.1615745298463E-01  6.2517465532609E-01
113  1.1200000000000E+00 -4.8365532726056E-01  5.2942539074889E-01
114  1.1300000000000E+00 -4.4927912116876E-01  4.3310205257448E-01
115  1.1400000000000E+00 -4.1342637481276E-01  3.3705429503188E-01
116  1.1500000000000E+00 -3.7650667203478E-01  2.4214941099543E-01
117  1.1600000000000E+00 -3.3893607331458E-01  1.4925918383190E-01
118  1.1700000000000E+00 -3.0113134850509E-01  5.9246281436186E-02
119  1.1800000000000E+00 -2.6350410701594E-01 -2.7049567809938E-02
120  1.1900000000000E+00 -2.2645492628641E-01 -1.0882536975868E-01
121  1.2000000000000E+00 -1.9036758063980E-01 -1.8532837973251E-01
122  1.2100000000000E+00 -1.5560347182401E-01 -2.5586909037223E-01
123  1.2200000000000E+00 -1.2249635969629E-01 -3.1983345153343E-01
124  1.2300000000000E+00 -9.1347486667509E-02 -3.7669409391999E-01
125  1.2400000000000E+00 -6.2421182757835E-02 -4.2602034511807E-01
126  1.2500000000000E+00 -3.5941029498411E-02 -4.6748684822224E-01
127  1.2600000000000E+00 -1.2086650722024E-02 -5.0088061862825E-01
128  1.2700000000000E+00  9.0088134273531E-03 -5.2610640367354E-01
129  1.2800000000000E+00  2.7260505862918E-02 -5.4319024187134E-01
130  1.2900000000000E+00  4.2632895889752E-02 -5.5228115325698E-01
131  1.3000000000000E+00  5.5140047821020E-02 -5.5365091582874E-01
132  1.3100000000000E+00  6.4845141054284E-02 -5.4769201781740E-01
133  1.3200000000000E+00  7.1858201477086E-02 -5.3491040573858E-01
134  1.3300000000000E+00  7.6329619671864E-02 -5.1590544608428E-01
135  1.3400000000000E+00  7.8444538644560E-02 -4.9135389048408E-01
136  1.3500000000000E+00  7.8418771832217E-02 -4.6199949741808E-01
137  1.3600000000000E+00  7.6494176573695E-02 -4.2864131875393E-01
138  1.3700000000000E+00  7.2933583461193E-02 -3.9212091747775E-01
139  1.3800000000000E+00  6.8015356257955E-02 -3.5330868758982E-01
140  1.3900000000000E+00  6.2027682580628E-02 -3.1308952578818E-01
141  1.4000000000000E+00  5.5262700119051E-02 -2.7234811476401E-01
142  1.4100000000000E+00  4.8010573404859E-02 -2.3195409948731E-01
143  1.4200000000000E+00  4.0553573985867E-02 -1.9274732104250E-01
144  1.4300000000000E+00  3.3160514161063E-02 -1.5552383549684E-01
145  1.4400000000000E+00  2.6074943238810E-02 -1.2101023249688E-01
146  1.4500000000000E+00  1.9508908210271E-02 -8.9848171881085E-02
147  1.4600000000000E+00  1.3668655647578E-02 -6.2641003164512E-02
148  1.4700000000000E+00  8.7266487970723E-03 -3.9899121459660E-02
149  1.4800000000000E+00  4.8174357864190E-03 -2.2029897091104E-02
150  1.4900000000000E+00  2.0351909100221E-03 -9.3320315942334E-03
151  1.5000000000000E+00  4.3272972271929E-04 -1.9946688531646E-03
152  1.5100000000000E+00 -1.6059697413740E-05  7.4418816680824E-05
153  1.5200000000000E+00  5.8380658952759E-06 -2.6992273937506E-05
154  1.53 -0.  0.
155  1.54 -0. -0.
156  1.55  0.  0.
157  1.56  0.  0.
158  1.57  0.  0.
159  1.58  0.  0.
160  1.59  0.  0.
161  1.60  0.  0.
162  1.61  0.  0.
163  1.62  0.  0.
164  1.63  0.  0.
165  1.64  0.  0.
166  1.65  0.  0.
167  1.66  0.  0.
168  1.67  0.  0.
169  1.68  0.  0.
170  1.69  0.  0.
171  1.70  0.  0.
172  1.71  0.  0.
173  1.72  0.  0.
174  1.73  0.  0.
175  1.74  0.  0.
176  1.75  0.  0.
177  1.76  0.  0.
178  1.77  0.  0.
179  1.78  0.  0.
180  1.79  0.  0.
181  1.80  0.  0.
182  1.81  0.  0.
183  1.82  0.  0.
184  1.83  0.  0.
185  1.84  0.  0.
186  1.85  0.  0.
187  1.86  0.  0.
188  1.87  0.  0.
189  1.88  0.  0.
190  1.89  0.  0.
191  1.90  0.  0.
192  1.91  0.  0.
193  1.92  0.  0.
194  1.93  0.  0.
195  1.94  0.  0.
196  1.95  0.  0.
197  1.96  0.  0.
198  1.97  0.  0.
199  1.98  0.  0.
200  1.99  0.  0.
201  2.00  0.  0.
202  2.01  0.  0.
203  2.02  0.  0.
204  2.03  0.  0.
205  2.04  0.  0.
206  2.05  0.  0.
207  2.06  0.  0.
208  2.07  0.  0.
209  2.08  0.  0.
210  2.09  0.  0.
211  2.10  0.  0.
212  2.11  0.  0.
213  2.12  0.  0.
214  2.13  0.  0.
215  2.14  0.  0.
216  2.15  0.  0.
217  2.16  0.  0.
218  2.17  0.  0.
219  2.18  0.  0.
220  2.19  0.  0.
221  2.20  0.  0.
222  2.21  0.  0.
223  2.22  0.  0.
224  2.23  0.  0.
225  2.24  0.  0.
226  2.25  0.  0.
227  2.26  0.  0.
228  2.27  0.  0.
229  2.28  0.  0.
230  2.29  0.  0.
231  2.30  0.  0.
232  2.31  0.  0.
233  2.32  0.  0.
234  2.33  0.  0.
235  2.34  0.  0.
236  2.35  0.  0.
237  2.36  0.  0.
238  2.37  0.  0.
239  2.38  0.  0.
240  2.39  0.  0.
241  2.40  0.  0.
242  2.41  0.  0.
243  2.42  0.  0.
244  2.43  0.  0.
245  2.44  0.  0.
246  2.45  0.  0.
247  2.46  0.  0.