<?xml version="1.0" encoding="UTF-8" ?>
<psml version="1.1" energy_unit="hartree" length_unit="bohr"
 uuid="08a16200-c73d-11ed-6f55-8463775b9cfd"
 xmlns="http://esl.cecam.org/PSML/ns/1.1">
<provenance creator="ONCVPSP-4.0.1+psml-4.0.1-76 (scalar-relativistic)"
 date="2023-03-20">
<annotation action="semilocal-pseudopotential-generation"
 action-cont="projectors-generation" />
<input-file name="oncvpsp-input">
<![CDATA[# atsym z nc nv iexc psfile
Pb 82 10 5 4 both
# n l f
1 0 2.0
2 0 2.0
2 1 6.0
3 0 2.0
3 1 6.0
3 2 10.0
4 0 2.0
4 1 6.0
4 2 10.0
4 3 14.0
5 0 2.0
5 1 6.0
5 2 10.0
6 0 2.0
6 1 2.0
# lmax
3
# l rc ep ncon nbas qcut
0 1.4 0.0 4 8 9.0
1 1.5 0.0 4 8 8.4
2 1.4 0.0 4 8 9.0
3 1.4 0.05 4 7 3.0
# lloc lpopt rc5 dvloc0
4 5 1.3 0.0
# l nproj debl
0 2 1.8
1 2 2.5
2 2 1.0
3 1 1.0
# icmod fcfact rcfact
3 6.0 1.34
# epsh1 epsh2 depsh
-15.0 12.0 0.02
# rlmax drl
6.0 0.01
0
]]>
</input-file>
</provenance>
<pseudo-atom-spec atomic-label="Pb" atomic-number="82" z-pseudo="22"
 flavor="Hamann&apos;s oncvpsp" relativity="scalar" spin-dft="no"
 core-corrections="yes">
<annotation pseudo-energy="-195.402765566" cutoff_hint_low="35"
 cutoff_hint_normal="38" cutoff_hint_high="40" />
<exchange-correlation>
<annotation oncvpsp-xc-code="4" oncvpsp-xc-type="GGA -- Perdew-Burke-Ernzerhof" />
<libxc-info number-of-functionals="2">
<functional name="Perdew, Burke &amp; Ernzerhof (GGA)" type="exchange" id="101" />
<functional name="Perdew, Burke &amp; Ernzerhof (GGA)" type="correlation"
 id="130" />
</libxc-info>
</exchange-correlation>
<valence-configuration total-valence-charge="22">
<shell n="5" l="s" occupation="2" />
<shell n="5" l="p" occupation="6" />
<shell n="5" l="d" occupation="10" />
<shell n="6" l="s" occupation="2" />
<shell n="6" l="p" occupation="2" />
</valence-configuration>
</pseudo-atom-spec>
<grid npts="797">
<annotation type="sampled from oncvpsp log grid"
 recipe="r(i:1..N) = r1*exp(a*(i-1)) + r=0; resampled"
 recipe-cont="r1: scale; a: step" scale="0.609756097561E-05"
 step="0.598207167755E-02" delta="0.500000000000E-02" rmax="44.5678017867" />
<grid-data>
  0.000000000000E+00  5.012917066129E-03  1.003358844303E-02  1.507019847945E-02
  2.008269750250E-02  2.520840189099E-02  3.034469078718E-02  3.545114079808E-02
  4.068026484171E-02  4.585042715774E-02  5.106308378314E-02  5.619203113603E-02
  6.146734310012E-02  6.683688045181E-02  7.224202661049E-02  7.761857931552E-02
  8.289789013999E-02  8.800822956848E-02  9.343360197344E-02  9.860181703668E-02
  1.040559083412E-01  1.091567484428E-01  1.145076326809E-01  1.201208182658E-01
  1.252576175533E-01  1.306140848992E-01  1.361996141017E-01  1.420240006716E-01
  1.472141739674E-01  1.525940187181E-01  1.581704663418E-01  1.639507015605E-01
  1.699421716574E-01  1.751019841666E-01  1.804184597622E-01  1.858963550750E-01
  1.915405711572E-01  1.973561578679E-01  2.033483183904E-01  2.095224138884E-01
  2.145963899621E-01  2.197932418308E-01  2.251159451612E-01  2.305675476811E-01
  2.361511709249E-01  2.418700120207E-01  2.477273455210E-01  2.537265252776E-01
  2.598709863622E-01  2.661642470333E-01  2.726099107503E-01  2.792116682373E-01
  2.842676934355E-01  2.894152742300E-01  2.946560685295E-01  2.999917642641E-01
  3.054240799297E-01  3.109547651406E-01  3.165856011940E-01  3.223184016429E-01
  3.281550128807E-01  3.340973147354E-01  3.401472210756E-01  3.463066804267E-01
  3.525776765981E-01  3.589622293227E-01  3.654623949071E-01  3.720802668940E-01
  3.788179767362E-01  3.856776944836E-01  3.926616294817E-01  3.997720310833E-01
  4.070111893729E-01  4.143814359045E-01  4.218851444523E-01  4.269629540509E-01
  4.321018801658E-01  4.373026583955E-01  4.425660331920E-01  4.478927579675E-01
  4.532835952024E-01  4.587393165542E-01  4.642607029683E-01  4.698485447892E-01
  4.755036418743E-01  4.812268037079E-01  4.870188495173E-01  4.928806083901E-01
  4.988129193927E-01  5.048166316905E-01  5.108926046695E-01  5.170417080593E-01
  5.232648220575E-01  5.295628374558E-01  5.359366557674E-01  5.423871893562E-01
  5.489153615673E-01  5.555221068591E-01  5.622083709373E-01  5.689751108899E-01
  5.758232953246E-01  5.827539045071E-01  5.897679305017E-01  5.968663773133E-01
  6.040502610306E-01  6.113206099724E-01  6.186784648340E-01  6.261248788367E-01
  6.336609178784E-01  6.412876606860E-01  6.490061989700E-01  6.568176375808E-01
  6.647230946667E-01  6.727237018342E-01  6.808206043094E-01  6.890149611029E-01
  6.973079451747E-01  7.057007436029E-01  7.141945577529E-01  7.227906034500E-01
  7.314901111531E-01  7.402943261309E-01  7.492045086402E-01  7.582219341062E-01
  7.673478933051E-01  7.765836925490E-01  7.859306538725E-01  7.953901152225E-01
  8.049634306493E-01  8.146519705006E-01  8.244571216176E-01  8.343802875333E-01
  8.393865692585E-01  8.444228886741E-01  8.494894260061E-01  8.545863625622E-01
  8.597138807375E-01  8.648721640220E-01  8.700613970061E-01  8.752817653881E-01
  8.805334559805E-01  8.858166567164E-01  8.911315566567E-01  8.964783459966E-01
  9.018572160726E-01  9.072683593690E-01  9.127119695252E-01  9.181882413424E-01
  9.236973707904E-01  9.292395550152E-01  9.348149923453E-01  9.404238822993E-01
  9.460664255931E-01  9.517428241467E-01  9.574532810916E-01  9.631980007781E-01
  9.689771887828E-01  9.747910519155E-01  9.806397982270E-01  9.865236370163E-01
  9.924427788384E-01  9.983974355115E-01  1.004387820125E+00  1.010414147045E+00
  1.016476631928E+00  1.022575491719E+00  1.028710944669E+00  1.034883210337E+00
  1.041092509599E+00  1.047339064657E+00  1.053623099045E+00  1.059944837639E+00
  1.066304506665E+00  1.072702333705E+00  1.079138547707E+00  1.085613378994E+00
  1.092127059268E+00  1.098679821623E+00  1.105271900553E+00  1.111903531956E+00
  1.118574953148E+00  1.125286402867E+00  1.132038121284E+00  1.138830350012E+00
  1.145663332112E+00  1.152537312104E+00  1.159452535977E+00  1.166409251193E+00
  1.173407706700E+00  1.180448152940E+00  1.187530841858E+00  1.194656026909E+00
  1.201823963071E+00  1.209034906849E+00  1.216289116290E+00  1.223586850988E+00
  1.230928372094E+00  1.238313942326E+00  1.245743825980E+00  1.253218288936E+00
  1.260737598670E+00  1.268302024262E+00  1.275911836407E+00  1.283567307426E+00
  1.291268711270E+00  1.299016323538E+00  1.306810421479E+00  1.314651284008E+00
  1.322539191712E+00  1.330474426862E+00  1.338457273424E+00  1.346488017064E+00
  1.354566945167E+00  1.362694346838E+00  1.370870512919E+00  1.379095735996E+00
  1.387370310412E+00  1.395694532274E+00  1.404068699468E+00  1.412493111665E+00
  1.420968070335E+00  1.429493878757E+00  1.438070842029E+00  1.446699267082E+00
  1.455379462684E+00  1.464111739460E+00  1.472896409897E+00  1.481733788356E+00
  1.490624191087E+00  1.499567936233E+00  1.508565343850E+00  1.517616735914E+00
  1.526722436329E+00  1.535882770947E+00  1.545098067573E+00  1.554368655978E+00
  1.563694867914E+00  1.573077037121E+00  1.582515499344E+00  1.592010592340E+00
  1.601562655894E+00  1.611172031830E+00  1.620839064021E+00  1.630564098405E+00
  1.640347482995E+00  1.650189567893E+00  1.660090705301E+00  1.670051249532E+00
  1.680071557030E+00  1.690151986372E+00  1.700292898290E+00  1.710494655680E+00
  1.720757623614E+00  1.731082169355E+00  1.741468662372E+00  1.751917474346E+00
  1.762428979192E+00  1.773003553067E+00  1.783641574385E+00  1.794343423832E+00
  1.805109484375E+00  1.815940141281E+00  1.826835782129E+00  1.837796796821E+00
  1.848823577602E+00  1.859916519068E+00  1.871076018182E+00  1.882302474292E+00
  1.893596289137E+00  1.904957866872E+00  1.916387614073E+00  1.927885939758E+00
  1.939453255396E+00  1.951089974929E+00  1.962796514778E+00  1.974573293867E+00
  1.986420733630E+00  1.998339258032E+00  2.010329293580E+00  2.022391269342E+00
  2.034525616958E+00  2.046732770659E+00  2.059013167283E+00  2.071367246287E+00
  2.083795449765E+00  2.096298222463E+00  2.108876011798E+00  2.121529267869E+00
  2.134258443476E+00  2.147063994137E+00  2.159946378102E+00  2.172906056370E+00
  2.185943492709E+00  2.199059153665E+00  2.212253508587E+00  2.225527029638E+00
  2.238880191816E+00  2.252313472967E+00  2.265827353805E+00  2.279422317928E+00
  2.293098851835E+00  2.306857444946E+00  2.320698589616E+00  2.334622781154E+00
  2.348630517841E+00  2.362722300948E+00  2.376898634753E+00  2.391160026562E+00
  2.405506986721E+00  2.419940028642E+00  2.434459668813E+00  2.449066426826E+00
  2.463760825387E+00  2.478543390340E+00  2.493414650682E+00  2.508375138586E+00
  2.523425389417E+00  2.538565941754E+00  2.553797337404E+00  2.569120121429E+00
  2.584534842157E+00  2.600042051210E+00  2.615642303517E+00  2.631336157339E+00
  2.647124174283E+00  2.663006919328E+00  2.678984960844E+00  2.695058870609E+00
  2.711229223833E+00  2.727496599176E+00  2.743861578771E+00  2.760324748244E+00
  2.776886696733E+00  2.793548016914E+00  2.810309305015E+00  2.827171160845E+00
  2.844134187810E+00  2.861198992937E+00  2.878366186895E+00  2.895636384016E+00
  2.913010202320E+00  2.930488263534E+00  2.948071193115E+00  2.965759620274E+00
  2.983554177996E+00  3.001455503064E+00  3.019464236082E+00  3.037581021498E+00
  3.055806507627E+00  3.074141346673E+00  3.092586194753E+00  3.111141711922E+00
  3.129808562193E+00  3.148587413566E+00  3.167478938048E+00  3.186483811676E+00
  3.205602714546E+00  3.224836330833E+00  3.244185348818E+00  3.263650460911E+00
  3.283232363677E+00  3.302931757859E+00  3.322749348406E+00  3.342685844496E+00
  3.362741959563E+00  3.382918411321E+00  3.403215921789E+00  3.423635217319E+00
  3.444177028623E+00  3.464842090795E+00  3.485631143340E+00  3.506544930200E+00
  3.527584199781E+00  3.548749704980E+00  3.570042203210E+00  3.591462456429E+00
  3.613011231168E+00  3.634689298555E+00  3.656497434346E+00  3.678436418952E+00
  3.700507037466E+00  3.722710079690E+00  3.745046340169E+00  3.767516618210E+00
  3.790121717919E+00  3.812862448226E+00  3.835739622916E+00  3.858754060653E+00
  3.881906585017E+00  3.905198024527E+00  3.928629212674E+00  3.952200987950E+00
  3.975914193878E+00  3.999769679041E+00  4.023768297116E+00  4.047910906898E+00
  4.072198372340E+00  4.096631562574E+00  4.121211351949E+00  4.145938620061E+00
  4.170814251781E+00  4.195839137292E+00  4.221014172116E+00  4.246340257148E+00
  4.271818298691E+00  4.297449208483E+00  4.323233903734E+00  4.349173307157E+00
  4.375268347000E+00  4.401519957082E+00  4.427929076824E+00  4.454496651285E+00
  4.481223631193E+00  4.508110972980E+00  4.535159638818E+00  4.562370596651E+00
  4.589744820231E+00  4.617283289152E+00  4.644986988887E+00  4.672856910820E+00
  4.700894052285E+00  4.729099416599E+00  4.757474013099E+00  4.786018857177E+00
  4.814734970320E+00  4.843623380142E+00  4.872685120423E+00  4.901921231146E+00
  4.931332758532E+00  4.960920755084E+00  4.990686279614E+00  5.020630397292E+00
  5.050754179676E+00  5.081058704754E+00  5.111545056982E+00  5.142214327324E+00
  5.173067613288E+00  5.204106018968E+00  5.235330655082E+00  5.266742639012E+00
  5.298343094846E+00  5.330133153415E+00  5.362113952336E+00  5.394286636050E+00
  5.426652355866E+00  5.459212270001E+00  5.491967543621E+00  5.524919348883E+00
  5.558068864976E+00  5.591417278166E+00  5.624965781835E+00  5.658715576526E+00
  5.692667869985E+00  5.726823877205E+00  5.761184820468E+00  5.795751929391E+00
  5.830526440968E+00  5.865509599613E+00  5.900702657211E+00  5.936106873154E+00
  5.971723514393E+00  6.007553855480E+00  6.043599178612E+00  6.079860773684E+00
  6.116339938326E+00  6.153037977956E+00  6.189956205824E+00  6.227095943059E+00
  6.264458518717E+00  6.302045269829E+00  6.339857541448E+00  6.377896686697E+00
  6.416164066817E+00  6.454661051218E+00  6.493389017526E+00  6.532349351631E+00
  6.571543447740E+00  6.610972708427E+00  6.650638544677E+00  6.690542375946E+00
  6.730685630201E+00  6.771069743982E+00  6.811696162446E+00  6.852566339421E+00
  6.893681737458E+00  6.935043827882E+00  6.976654090850E+00  7.018514015395E+00
  7.060625099487E+00  7.102988850084E+00  7.145606783184E+00  7.188480423884E+00
  7.231611306427E+00  7.275000974265E+00  7.318650980111E+00  7.362562885992E+00
  7.406738263308E+00  7.451178692887E+00  7.495885765045E+00  7.540861079635E+00
  7.586106246113E+00  7.631622883590E+00  7.677412620891E+00  7.723477096616E+00
  7.769817959196E+00  7.816436866951E+00  7.863335488153E+00  7.910515501082E+00
  7.957978594088E+00  8.005726465653E+00  8.053760824447E+00  8.102083389394E+00
  8.150695889730E+00  8.199600065068E+00  8.248797665459E+00  8.298290451451E+00
  8.348080194160E+00  8.398168675325E+00  8.448557687377E+00  8.499249033501E+00
  8.550244527702E+00  8.601545994869E+00  8.653155270838E+00  8.705074202463E+00
  8.757304647678E+00  8.809848475564E+00  8.862707566417E+00  8.915883811816E+00
  8.969379114686E+00  9.023195389375E+00  9.077334561711E+00  9.131798569081E+00
  9.186589360496E+00  9.241708896659E+00  9.297159150038E+00  9.352942104939E+00
  9.409059757568E+00  9.465514116114E+00  9.522307200810E+00  9.579441044015E+00
  9.636917690279E+00  9.694739196421E+00  9.752907631600E+00  9.811425077389E+00
  9.870293627854E+00  9.929515389621E+00  9.989092481958E+00  1.004902703685E+01
  1.010932119907E+01  1.016997712627E+01  1.023099698902E+01  1.029238297096E+01
  1.035413726878E+01  1.041626209240E+01  1.047875966495E+01  1.054163222294E+01
  1.060488201628E+01  1.066851130838E+01  1.073252237623E+01  1.079691751048E+01
  1.086169901555E+01  1.092686920964E+01  1.099243042490E+01  1.105838500745E+01
  1.112473531749E+01  1.119148372940E+01  1.125863263177E+01  1.132618442756E+01
  1.139414153413E+01  1.146250638333E+01  1.153128142163E+01  1.160046911016E+01
  1.167007192482E+01  1.174009235637E+01  1.181053291051E+01  1.188139610797E+01
  1.195268448462E+01  1.202440059153E+01  1.209654699508E+01  1.216912627705E+01
  1.224214103471E+01  1.231559388092E+01  1.238948744421E+01  1.246382436887E+01
  1.253860731508E+01  1.261383895897E+01  1.268952199273E+01  1.276565912468E+01
  1.284225307943E+01  1.291930659791E+01  1.299682243750E+01  1.307480337212E+01
  1.315325219235E+01  1.323217170551E+01  1.331156473574E+01  1.339143412416E+01
  1.347178272890E+01  1.355261342527E+01  1.363392910583E+01  1.371573268046E+01
  1.379802707654E+01  1.388081523900E+01  1.396410013044E+01  1.404788473122E+01
  1.413217203961E+01  1.421696507184E+01  1.430226686228E+01  1.438808046345E+01
  1.447440894623E+01  1.456125539991E+01  1.464862293231E+01  1.473651466990E+01
  1.482493375792E+01  1.491388336047E+01  1.500336666063E+01  1.509338686059E+01
  1.518394718176E+01  1.527505086485E+01  1.536670117004E+01  1.545890137706E+01
  1.555165478532E+01  1.564496471403E+01  1.573883450232E+01  1.583326750933E+01
  1.592826711439E+01  1.602383671707E+01  1.611997973737E+01  1.621669961580E+01
  1.631399981349E+01  1.641188381237E+01  1.651035511525E+01  1.660941724594E+01
  1.670907374942E+01  1.680932819191E+01  1.691018416106E+01  1.701164526603E+01
  1.711371513763E+01  1.721639742845E+01  1.731969581302E+01  1.742361398790E+01
  1.752815567183E+01  1.763332460586E+01  1.773912455349E+01  1.784555930082E+01
  1.795263265662E+01  1.806034845256E+01  1.816871054328E+01  1.827772280654E+01
  1.838738914337E+01  1.849771347823E+01  1.860869975910E+01  1.872035195766E+01
  1.883267406940E+01  1.894567011382E+01  1.905934413450E+01  1.917370019931E+01
  1.928874240051E+01  1.940447485491E+01  1.952090170404E+01  1.963802711426E+01
  1.975585527695E+01  1.987439040861E+01  1.999363675106E+01  2.011359857157E+01
  2.023428016300E+01  2.035568584398E+01  2.047781995904E+01  2.060068687879E+01
  2.072429100007E+01  2.084863674607E+01  2.097372856654E+01  2.109957093794E+01
  2.122616836357E+01  2.135352537375E+01  2.148164652600E+01  2.161053640515E+01
  2.174019962358E+01  2.187064082132E+01  2.200186466625E+01  2.213387585425E+01
  2.226667910937E+01  2.240027918403E+01  2.253468085913E+01  2.266988894429E+01
  2.280590827796E+01  2.294274372762E+01  2.308040018999E+01  2.321888259113E+01
  2.335819588668E+01  2.349834506200E+01  2.363933513237E+01  2.378117114316E+01
  2.392385817002E+01  2.406740131904E+01  2.421180572696E+01  2.435707656132E+01
  2.450321902068E+01  2.465023833481E+01  2.479813976482E+01  2.494692860341E+01
  2.509661017503E+01  2.524718983608E+01  2.539867297509E+01  2.555106501294E+01
  2.570437140302E+01  2.585859763144E+01  2.601374921723E+01  2.616983171253E+01
  2.632685070281E+01  2.648481180702E+01  2.664372067787E+01  2.680358300193E+01
  2.696440449994E+01  2.712619092694E+01  2.728894807251E+01  2.745268176094E+01
  2.761739785151E+01  2.778310223862E+01  2.794980085205E+01  2.811749965716E+01
  2.828620465510E+01  2.845592188303E+01  2.862665741433E+01  2.879841735882E+01
  2.897120786297E+01  2.914503511015E+01  2.931990532081E+01  2.949582475273E+01
  2.967279970125E+01  2.985083649946E+01  3.002994151845E+01  3.021012116757E+01
  3.039138189457E+01  3.057373018594E+01  3.075717256705E+01  3.094171560246E+01
  3.112736589607E+01  3.131413009145E+01  3.150201487200E+01  3.169102696123E+01
  3.188117312300E+01  3.207246016173E+01  3.226489492270E+01  3.245848429224E+01
  3.265323519799E+01  3.284915460918E+01  3.304624953684E+01  3.324452703406E+01
  3.344399419626E+01  3.364465816144E+01  3.384652611041E+01  3.404960526707E+01
  3.425390289867E+01  3.445942631607E+01  3.466618287396E+01  3.487417997121E+01
  3.508342505103E+01  3.529392560134E+01  3.550568915495E+01  3.571872328988E+01
  3.593303562962E+01  3.614863384339E+01  3.636552564645E+01  3.658371880033E+01
  3.680322111313E+01  3.702404043981E+01  3.724618468245E+01  3.746966179055E+01
  3.769447976129E+01  3.792064663986E+01  3.814817051970E+01  3.837705954282E+01
  3.860732190007E+01  3.883896583147E+01  3.907199962646E+01  3.930643162422E+01
  3.954227021397E+01  3.977952383525E+01  4.001820097826E+01  4.025831018413E+01
  4.049986004524E+01  4.074285920551E+01  4.098731636074E+01  4.123324025890E+01
  4.148063970046E+01  4.172952353866E+01  4.197990067989E+01  4.223178008397E+01
  4.248517076448E+01  4.274008178906E+01  4.299652227980E+01  4.325450141348E+01
  4.351402842196E+01  4.377511259249E+01  4.403776326804E+01  4.430198984765E+01
  4.456780178674E+01
</grid-data>
</grid>
<valence-charge total-charge="22" is-unscreening-charge="yes"
 rescaled-to-z-pseudo="no">
<radfunc>
<data npts="797">
  3.990862616144E+00  3.993692516359E+00  4.002199153807E+00  4.016434848883E+00
  4.036269628269E+00  4.062394713949E+00  4.094494006819E+00  4.132274707200E+00
  4.177017716151E+00  4.227269500358E+00  4.283975731980E+00  4.345679239748E+00
  4.415241834217E+00  4.492379997677E+00  4.576462296411E+00  4.666480188887E+00
  4.761038260830E+00  4.858367721965E+00  4.967911031002E+00  5.078185207994E+00
  5.200793305061E+00  5.321220904790E+00  5.453498773205E+00  5.598761040082E+00
  5.737484946130E+00  5.887988469456E+00  6.051232843642E+00  6.228249324232E+00
  6.391774357573E+00  6.566967725521E+00  6.754611409270E+00  6.955530323960E+00
  7.170592767215E+00  7.361271983555E+00  7.562955762868E+00  7.776214572153E+00
  8.001638229431E+00  8.239834767947E+00  8.491428894841E+00  8.757059974310E+00
  8.980108890347E+00  9.212896015078E+00  9.455761534220E+00  9.709046529353E+00
  9.973091248181E+00  1.024823310460E+01  1.053480437933E+01  1.083312958988E+01
  1.114352249660E+01  1.146628270966E+01  1.180169186042E+01  1.215000929900E+01
  1.241985932368E+01  1.269718783367E+01  1.298206944229E+01  1.327456560461E+01
  1.357472299702E+01  1.388257177708E+01  1.419812371951E+01  1.452137022455E+01
  1.485228019591E+01  1.519079778601E+01  1.553684000738E+01  1.589029421054E+01
  1.625101542950E+01  1.661882359850E+01  1.699350064484E+01  1.737478746542E+01
  1.776238079685E+01  1.815592999205E+01  1.855503371961E+01  1.895923660542E+01
  1.936802584067E+01  1.978082778427E+01  2.019700459279E+01  2.047598527782E+01
  2.075592754649E+01  2.103659070314E+01  2.131771929158E+01  2.159904272834E+01
  2.188027496011E+01  2.216111414960E+01  2.244124239381E+01  2.272032547943E+01
  2.299801267992E+01  2.327393659950E+01  2.354771306908E+01  2.381894109980E+01
  2.408720289977E+01  2.435206395998E+01  2.461307321538E+01  2.486976328745E+01
  2.512165081444E+01  2.536823687582E+01  2.560900751717E+01  2.584343438212E+01
  2.607097545727E+01  2.629107593654E+01  2.650316921054E+01  2.670667798668E+01
  2.690101554495E+01  2.708558713408E+01  2.725979151211E+01  2.742302263431E+01
  2.757467149121E+01  2.771412809776E+01  2.784078363411E+01  2.795403273697E+01
  2.805327593913E+01  2.813792225327E+01  2.820739189459E+01  2.826111913488E+01
  2.829855527867E+01  2.831917175055E+01  2.832246327993E+01  2.830795116798E+01
  2.827518661876E+01  2.822375411472E+01  2.815327481393E+01  2.806340994472E+01
  2.795386417085E+01  2.782438889842E+01  2.767478549388E+01  2.750490838069E+01
  2.731466798093E+01  2.710403346690E+01  2.687303528722E+01  2.662176743142E+01
  2.635038939738E+01  2.605912782669E+01  2.574827777411E+01  2.541820357940E+01
  2.524609034870E+01  2.506933931218E+01  2.488801562256E+01  2.470218876377E+01
  2.451193252444E+01  2.431732496345E+01  2.411844836764E+01  2.391538920146E+01
  2.370823804861E+01  2.349708954561E+01  2.328204230728E+01  2.306319884420E+01
  2.284066547216E+01  2.261455221372E+01  2.238497269193E+01  2.215204401639E+01
  2.191588666174E+01  2.167662433889E+01  2.143438385901E+01  2.118929499070E+01
  2.094149031043E+01  2.069110504673E+01  2.043827691820E+01  2.018314596588E+01
  1.992585438019E+01  1.966654632287E+01  1.940536774433E+01  1.914246619666E+01
  1.887799064298E+01  1.861209126332E+01  1.834491925754E+01  1.807662664581E+01
  1.780736606705E+01  1.753729057568E+01  1.726655343736E+01  1.699530792402E+01
  1.672370710859E+01  1.645190366005E+01  1.618004963911E+01  1.590829629494E+01
  1.563679386346E+01  1.536569136750E+01  1.509513641930E+01  1.482527502561E+01
  1.455625139587E+01  1.428820775370E+01  1.402128415212E+01  1.375561829264E+01
  1.349134534865E+01  1.322859779329E+01  1.296750523204E+01  1.270819424020E+01
  1.245078820560E+01  1.219540717657E+01  1.194216771536E+01  1.169118275731E+01
  1.144256147569E+01  1.119640915256E+01  1.095282705562E+01  1.071191232122E+01
  1.047375784379E+01  1.023845217155E+01  1.000607940893E+01  9.776719125577E+00
  9.550446272310E+00  9.327331104030E+00  9.107439109843E+00  8.890830950546E+00
  8.677562403687E+00  8.467684316418E+00  8.261242566357E+00  8.058278030736E+00
  7.858826564052E+00  7.662918984539E+00  7.470581069708E+00  7.281833561262E+00
  7.096692179681E+00  6.915167648810E+00  6.737265730852E+00  6.562987272478E+00
  6.392328262331E+00  6.225279898308E+00  6.061828664702E+00  5.901956422284E+00
  5.745640510150E+00  5.592853859667E+00  5.443565120489E+00  5.297738902606E+00
  5.155336458851E+00  5.016316611305E+00  4.880636002569E+00  4.748249128854E+00
  4.619108537054E+00  4.493164962573E+00  4.370367478743E+00  4.250663643843E+00
  4.133999647730E+00  4.020320457600E+00  3.909569962699E+00  3.801691170572E+00
  3.696626610895E+00  3.594318853520E+00  3.494710576969E+00  3.397744642725E+00
  3.303364159815E+00  3.211512546069E+00  3.122133585548E+00  3.035171482296E+00
  2.950570910521E+00  2.868277061299E+00  2.788235685911E+00  2.710393135915E+00
  2.634696400050E+00  2.561093138088E+00  2.489531711743E+00  2.419961212727E+00
  2.352331488087E+00  2.286593162903E+00  2.222697660479E+00  2.160597220113E+00
  2.100244912559E+00  2.041594653295E+00  1.984601213681E+00  1.929220230123E+00
  1.875408211333E+00  1.823122543797E+00  1.772321495530E+00  1.722964218219E+00
  1.675010747854E+00  1.628422003923E+00  1.583159787266E+00  1.539186776676E+00
  1.496466524314E+00  1.454963450041E+00  1.414642834726E+00  1.375470812607E+00
  1.337414362792E+00  1.300441299943E+00  1.264520264243E+00  1.229620710676E+00
  1.195712897712E+00  1.162767875432E+00  1.130757473165E+00  1.099654286688E+00
  1.069431665033E+00  1.040063696959E+00  1.011525197135E+00  9.837916920634E-01
  9.568394058155E-01  9.306452455850E-01  9.051867871213E-01  8.804422600665E-01
  8.563905332324E-01  8.330110998479E-01  8.102840628064E-01  7.881901199396E-01
  7.667105493438E-01  7.458271947816E-01  7.255224511809E-01  7.057792502517E-01
  6.865810462389E-01  6.679118018275E-01  6.497559742170E-01  6.320985013780E-01
  6.149247885045E-01  5.982206946724E-01  5.819725197154E-01  5.661669913275E-01
  5.507912523988E-01  5.358328485930E-01  5.212797161718E-01  5.071201700709E-01
  4.933428922334E-01  4.799369202014E-01  4.668916359703E-01  4.541967551074E-01
  4.418423161346E-01  4.298186701770E-01  4.181164708778E-01  4.067266645761E-01
  3.956404807501E-01  3.848494227213E-01  3.743452586192E-01  3.641200126027E-01
  3.541659563369E-01  3.444756007214E-01  3.350416878659E-01  3.258571833115E-01
  3.169152684908E-01  3.082093334258E-01  2.997329696565E-01  2.914799633979E-01
  2.834442889190E-01  2.756201021400E-01  2.680017344426E-01  2.605836866890E-01
  2.533606234426E-01  2.463273673885E-01  2.394788939457E-01  2.328103260678E-01
  2.263169292259E-01  2.199941065699E-01  2.138373942614E-01  2.078424569750E-01
  2.020050835690E-01  1.963211828833E-01  1.907867797358E-01  1.853980110361E-01
  1.801511220493E-01  1.750424627980E-01  1.700684845990E-01  1.652257367275E-01
  1.605108632068E-01  1.559205997186E-01  1.514517706282E-01  1.471012861227E-01
  1.428661394560E-01  1.387434042982E-01  1.347302321850E-01  1.308238500624E-01
  1.270215579251E-01  1.233207265433E-01  1.197187952747E-01  1.162132699594E-01
  1.128017208935E-01  1.094817808782E-01  1.062511433420E-01  1.031075605327E-01
  1.000488417767E-01  9.707285180214E-02  9.417750912373E-02  9.136078448722E-02
  8.862069937003E-02  8.595532453638E-02  8.336277864447E-02  8.084122690350E-02
  7.838887977848E-02  7.600399174079E-02  7.368486006258E-02  7.142982365308E-02
  6.923726193521E-02  6.710559376062E-02  6.503327636157E-02  6.301880433821E-02
  6.106070867956E-02  5.915755581699E-02  5.730794670861E-02  5.551051595349E-02
  5.376393093428E-02  5.206689098716E-02  5.041812659795E-02  4.881639862328E-02
  4.726049753588E-02  4.574924269282E-02  4.428148162605E-02  4.285608935409E-02
  4.147196771415E-02  4.012804471387E-02  3.882327390190E-02  3.755663375661E-02
  3.632712709215E-02  3.513378048137E-02  3.397564369480E-02  3.285178915519E-02
  3.176131141048E-02  3.070332660733E-02  2.967697199953E-02  2.868140545569E-02
  2.771580498357E-02  2.677936826682E-02  2.587131221384E-02  2.499087251837E-02
  2.413730323134E-02  2.330987634366E-02  2.250788137962E-02  2.173062500050E-02
  2.097743061808E-02  2.024763801783E-02  1.954060299134E-02  1.885569697777E-02
  1.819230671409E-02  1.754983389377E-02  1.692769483365E-02  1.632532014888E-02
  1.574215443546E-02  1.517765596040E-02  1.463129635907E-02  1.410256033966E-02
  1.359094539447E-02  1.309596151780E-02  1.261713093039E-02  1.215398780998E-02
  1.170607802806E-02  1.127295889242E-02  1.085419889544E-02  1.044937746795E-02
  1.005808473845E-02  9.679921297493E-03  9.314497967219E-03  8.961435575761E-03
  8.620364736412E-03  8.290925631444E-03  7.972767800406E-03  7.665549932795E-03
  7.368939664965E-03  7.082613381155E-03  6.806256018517E-03  6.539560876040E-03
  6.282229427252E-03  6.033971136607E-03  5.794503279457E-03  5.563550765508E-03
  5.340845965675E-03  5.126128542259E-03  4.919145282346E-03  4.719649934368E-03
  4.527403047739E-03  4.342171815506E-03  4.163729919941E-03  3.991857381018E-03
  3.826340407708E-03  3.666971252039E-03  3.513548065871E-03  3.365874760332E-03
  3.223760867862E-03  3.087021406831E-03  2.955476748686E-03  2.828952487573E-03
  2.707279312420E-03  2.590292881423E-03  2.477833698912E-03  2.369746994567E-03
  2.265882604941E-03  2.166094857276E-03  2.070242455573E-03  1.978188368896E-03
  1.889799721874E-03  1.804947687394E-03  1.723507381443E-03  1.645357760082E-03
  1.570381518539E-03  1.498464992377E-03  1.429498060739E-03  1.363374051631E-03
  1.299989649223E-03  1.239244803160E-03  1.181042639841E-03  1.125289375660E-03
  1.071894232174E-03  1.020769353191E-03  9.718297237360E-04  9.249930908889E-04
  8.801798864556E-04  8.373131514601E-04  7.963184624254E-04  7.571238594190E-04
  7.196597758382E-04  6.838589699070E-04  6.496564578580E-04  6.169894487716E-04
  5.857972810428E-04  5.560213604485E-04  5.276050997838E-04  5.004938600392E-04
  4.746348930864E-04  4.499772858444E-04  4.264719058918E-04  4.040713484971E-04
  3.827298850334E-04  3.624034127469E-04  3.430494058467E-04  3.246268678861E-04
  3.070962854011E-04  2.904195827781E-04  2.745600783162E-04  2.594824414563E-04
  2.451526511452E-04  2.315379553038E-04  2.186068313724E-04  2.063289479019E-04
  1.946751271635E-04  1.836173087492E-04  1.731285141363E-04  1.631828121886E-04
  1.537552855711E-04  1.448219980503E-04  1.363599626587E-04  1.283471107000E-04
  1.207622615716E-04  1.135850933838E-04  1.067961143551E-04  1.003766349638E-04
  9.430874083636E-05  8.857526635467E-05  8.315976896502E-05  7.804650417152E-05
  7.322040119828E-05  6.866703930491E-05  6.437262474075E-05  6.032396832364E-05
  5.650846362984E-05  5.291406578216E-05  4.952927082385E-05  4.634309566631E-05
  4.334505859914E-05  4.052516035136E-05  3.787386569313E-05  3.538208556748E-05
  3.304115974200E-05  3.084283997060E-05  2.877927365576E-05  2.684298800185E-05
  2.502687465025E-05  2.332417478736E-05  2.172846471629E-05  2.023364188374E-05
  1.883391135305E-05  1.752377271496E-05  1.629800742738E-05  1.515166657570E-05
  1.408005904508E-05  1.307874009626E-05  1.214350033651E-05  1.127035507709E-05
  1.045553406905E-05  9.695471608724E-06  8.986797004645E-06  8.326325397424E-06
  7.711048924195E-06  7.138128219264E-06  6.604884242568E-06  6.108790427613E-06
  5.647465140539E-06  5.218664442026E-06  4.820275143766E-06  4.450308151266E-06
  4.106892084815E-06  3.788267170474E-06  3.492779393023E-06  3.218874902872E-06