<?xml version="1.0" encoding="UTF-8" ?>
<psml version="1.1" energy_unit="hartree" length_unit="bohr"
 uuid="dc4dcbf0-c73a-11ed-4fa9-74e79cfeb140"
 xmlns="http://esl.cecam.org/PSML/ns/1.1">
<provenance creator="ONCVPSP-4.0.1+psml-4.0.1-76 (scalar-relativistic)"
 date="2023-03-20">
<annotation action="semilocal-pseudopotential-generation"
 action-cont="projectors-generation" />
<input-file name="oncvpsp-input">
<![CDATA[# asym z nc nv iexc psfile
Ba 56 9 3 4 both
# n l f
1 0 2.0
2 0 2.0
2 1 6.0
3 0 2.0
3 1 6.0
3 2 10.0
4 0 2.0
4 1 6.0
4 2 10.0
5 0 2.0
5 1 6.0
6 0 2.0
# lmax
3
# l rc ep ncon nbas qcut
0 1.95 0.0 3 8 5.2
1 1.8 0.0 4 8 6.6
2 1.9 0.0 4 9 6.8
3 2.1 0.05 4 8 8.0
# lloc lpopt rc5 dvloc0
4 5 1.8 0.0
# l nproj debl
0 2 1.0
1 2 2.5
2 2 3.0
3 2 3.0
# icmod fcfact rcfact
3 5.0 1.25
# epsh1 epsh2 depsh
-12.0 12.0 0.02
# rlmax drl
6.0 0.01

2

#   nvcnf (repeated ncnf times)
#         number of valence states in this test configuration
#   n, l, f  (nvcnf lines, repeated follwing nvcnf's ncnf times)
#   n    l    f
    3
    5 0 2.0
    5 1 6.0
    6 0 1.0
#
    3
    5 0 2.0
    5 1 6.0
    6 0 0.0
]]>
</input-file>
</provenance>
<pseudo-atom-spec atomic-label="Ba" atomic-number="56" z-pseudo="10"
 flavor="Hamann&apos;s oncvpsp" relativity="scalar" spin-dft="no"
 core-corrections="yes">
<annotation pseudo-energy="-25.6203406158" cutoff_hint_low="18"
 cutoff_hint_normal="37" cutoff_hint_high="75" />
<exchange-correlation>
<annotation oncvpsp-xc-code="4" oncvpsp-xc-type="GGA -- Perdew-Burke-Ernzerhof" />
<libxc-info number-of-functionals="2">
<functional name="Perdew, Burke &amp; Ernzerhof (GGA)" type="exchange" id="101" />
<functional name="Perdew, Burke &amp; Ernzerhof (GGA)" type="correlation"
 id="130" />
</libxc-info>
</exchange-correlation>
<valence-configuration total-valence-charge="10">
<shell n="5" l="s" occupation="2" />
<shell n="5" l="p" occupation="6" />
<shell n="6" l="s" occupation="2" />
</valence-configuration>
</pseudo-atom-spec>
<grid npts="796">
<annotation type="sampled from oncvpsp log grid"
 recipe="r(i:1..N) = r1*exp(a*(i-1)) + r=0; resampled"
 recipe-cont="r1: scale; a: step" scale="0.892857142857E-05"
 step="0.598207167755E-02" delta="0.500000000000E-02" rmax="44.5016663456" />
<grid-data>
  0.000000000000E+00  5.005478254517E-03  1.001869931297E-02  1.504783537909E-02
  2.005289621088E-02  2.517099441941E-02  3.029966142898E-02  3.539853383205E-02
  4.061989822832E-02  4.578238839200E-02  5.098730980652E-02  5.610864616712E-02
  6.137612994427E-02  6.673769928527E-02  7.213482459232E-02  7.750339887637E-02
  8.277487557988E-02  8.787763162891E-02  9.329495316794E-02  9.845549896841E-02
  1.039014967902E-01  1.089947676087E-01  1.143377115160E-01  1.199425675336E-01
  1.250717441771E-01  1.304202629072E-01  1.359975035825E-01  1.418132471779E-01
  1.469957186264E-01  1.523675800710E-01  1.579357526439E-01  1.637074104056E-01
  1.696899895880E-01  1.748421453031E-01  1.801507316279E-01  1.856204981345E-01
  1.912563386024E-01  1.970632953969E-01  2.030465639804E-01  2.092114975607E-01
  2.142779442155E-01  2.194670843265E-01  2.247818891445E-01  2.302254018749E-01
  2.358007394198E-01  2.415110941631E-01  2.473597357979E-01  2.533500131994E-01
  2.594853563418E-01  2.657692782626E-01  2.722053770741E-01  2.787973380235E-01
  2.838458604407E-01  2.889858025922E-01  2.942188199265E-01  2.995465978690E-01
  3.049708523653E-01  3.104933304336E-01  3.161158107277E-01  3.218401041093E-01
  3.276680542320E-01  3.336015381344E-01  3.396424668448E-01  3.457927859972E-01
  3.520544764573E-01  3.584295549608E-01  3.649200747628E-01  3.715281262993E-01
  3.782558378604E-01  3.851053762757E-01  3.920789476120E-01  3.991787978844E-01
  4.064072137791E-01  4.137665233902E-01  4.212590969693E-01  4.263293714604E-01
  4.314606717753E-01  4.366537324208E-01  4.419092967442E-01  4.472281170399E-01
  4.526109546566E-01  4.580585801068E-01  4.635717731770E-01  4.691513230389E-01
  4.747980283630E-01  4.805126974324E-01  4.862961482587E-01  4.921492086991E-01
  4.980727165750E-01  5.040675197917E-01  5.101344764599E-01  5.162744550186E-01
  5.224883343592E-01  5.287770039516E-01  5.351413639711E-01  5.415823254279E-01
  5.481008102967E-01  5.546977516495E-01  5.613740937883E-01  5.681307923812E-01
  5.749688145983E-01  5.818891392508E-01  5.888927569308E-01  5.959806701532E-01
  6.031538934992E-01  6.104134537613E-01  6.177603900908E-01  6.251957541459E-01
  6.327206102428E-01  6.403360355077E-01  6.480431200311E-01  6.558429670238E-01
  6.637366929749E-01  6.717254278115E-01  6.798103150607E-01  6.879925120127E-01
  6.962731898873E-01  7.046535340008E-01  7.131347439360E-01  7.217180337141E-01
  7.304046319678E-01  7.391957821182E-01  7.480927425518E-01  7.570967868011E-01
  7.662092037271E-01  7.754312977031E-01  7.847643888023E-01  7.942098129859E-01
  8.037689222950E-01  8.134430850437E-01  8.232336860153E-01  8.331421266602E-01
  8.431698252967E-01  8.482288442485E-01  8.533182173140E-01  8.584381266178E-01
  8.635887553776E-01  8.687702879098E-01  8.739829096373E-01  8.792268070951E-01
  8.845021679377E-01  8.898091809453E-01  8.951480360310E-01  9.005189242472E-01
  9.059220377926E-01  9.113575700194E-01  9.168257154395E-01  9.223266697321E-01
  9.278606297505E-01  9.334277935290E-01  9.390283602902E-01  9.446625304520E-01
  9.503305056347E-01  9.560324886685E-01  9.617686836005E-01  9.675392957021E-01
  9.733445314763E-01  9.791845986652E-01  9.850597062572E-01  9.909700644947E-01
  9.969158848817E-01  1.002897380191E+00  1.008914764472E+00  1.014968253059E+00
  1.021058062577E+00  1.027184410953E+00  1.033347517418E+00  1.039547602523E+00
  1.045784888138E+00  1.052059597467E+00  1.058371955052E+00  1.064722186782E+00
  1.071110519903E+00  1.077537183022E+00  1.084002406120E+00  1.090506420557E+00
  1.097049459080E+00  1.103631755835E+00  1.110253546370E+00  1.116915067648E+00
  1.123616558054E+00  1.130358257402E+00  1.137140406947E+00  1.143963249388E+00
  1.150827028885E+00  1.157731991058E+00  1.164678383004E+00  1.171666453302E+00
  1.178696452022E+00  1.185768630734E+00  1.192883242519E+00  1.200040541974E+00
  1.207240785226E+00  1.214484229937E+00  1.221771135317E+00  1.229101762129E+00
  1.236476372701E+00  1.243895230938E+00  1.251358602323E+00  1.258866753937E+00
  1.266419954461E+00  1.274018474188E+00  1.281662585033E+00  1.289352560543E+00
  1.297088675906E+00  1.304871207962E+00  1.312700435209E+00  1.320576637821E+00
  1.328500097647E+00  1.336471098233E+00  1.344489924823E+00  1.352556864372E+00
  1.360672205558E+00  1.368836238791E+00  1.377049256224E+00  1.385311551761E+00
  1.393623421072E+00  1.401985161598E+00  1.410397072568E+00  1.418859455003E+00
  1.427372611733E+00  1.435936847404E+00  1.444552468488E+00  1.453219783299E+00
  1.461939101999E+00  1.470710736611E+00  1.479535001031E+00  1.488412211037E+00
  1.497342684303E+00  1.506326740409E+00  1.515364700851E+00  1.524456889056E+00
  1.533603630391E+00  1.542805252173E+00  1.552062083686E+00  1.561374456188E+00
  1.570742702925E+00  1.580167159143E+00  1.589648162098E+00  1.599186051070E+00
  1.608781167377E+00  1.618433854381E+00  1.628144457507E+00  1.637913324252E+00
  1.647740804198E+00  1.657627249023E+00  1.667573012517E+00  1.677578450592E+00
  1.687643921296E+00  1.697769784824E+00  1.707956403533E+00  1.718204141954E+00
  1.728513366805E+00  1.738884447006E+00  1.749317753688E+00  1.759813660210E+00
  1.770372542172E+00  1.780994777425E+00  1.791680746089E+00  1.802430830566E+00
  1.813245415549E+00  1.824124888043E+00  1.835069637371E+00  1.846080055195E+00
  1.857156535526E+00  1.868299474739E+00  1.879509271588E+00  1.890786327217E+00
  1.902131045181E+00  1.913543831452E+00  1.925025094440E+00  1.936575245007E+00
  1.948194696477E+00  1.959883864656E+00  1.971643167844E+00  1.983473026851E+00
  1.995373865012E+00  2.007346108202E+00  2.019390184851E+00  2.031506525960E+00
  2.043695565116E+00  2.055957738507E+00  2.068293484938E+00  2.080703245848E+00
  2.093187465323E+00  2.105746590115E+00  2.118381069655E+00  2.131091356073E+00
  2.143877904210E+00  2.156741171635E+00  2.169681618665E+00  2.182699708377E+00
  2.195795906627E+00  2.208970682067E+00  2.222224506159E+00  2.235557853196E+00
  2.248971200315E+00  2.262465027517E+00  2.276039817682E+00  2.289696056588E+00
  2.303434232928E+00  2.317254838325E+00  2.331158367355E+00  2.345145317560E+00
  2.359216189465E+00  2.373371486602E+00  2.387611715521E+00  2.401937385814E+00
  2.416349010129E+00  2.430847104190E+00  2.445432186815E+00  2.460104779936E+00
  2.474865408616E+00  2.489714601067E+00  2.504652888674E+00  2.519680806006E+00
  2.534798890842E+00  2.550007684187E+00  2.565307730292E+00  2.580699576674E+00
  2.596183774134E+00  2.611760876779E+00  2.627431442039E+00  2.643196030692E+00
  2.659055206876E+00  2.675009538117E+00  2.691059595346E+00  2.707205952918E+00
  2.723449188635E+00  2.739789883767E+00  2.756228623070E+00  2.772765994808E+00
  2.789402590777E+00  2.806139006322E+00  2.822975840360E+00  2.839913695402E+00
  2.856953177574E+00  2.874094896640E+00  2.891339466019E+00  2.908687502816E+00
  2.926139627832E+00  2.943696465599E+00  2.961358644393E+00  2.979126796259E+00
  2.997001557037E+00  3.014983566379E+00  3.033073467777E+00  3.051271908584E+00
  3.069579540036E+00  3.087997017276E+00  3.106524999379E+00  3.125164149376E+00
  3.143915134272E+00  3.162778625078E+00  3.181755296828E+00  3.200845828609E+00
  3.220050903581E+00  3.239371209002E+00  3.258807436256E+00  3.278360280874E+00
  3.298030442559E+00  3.317818625214E+00  3.337725536966E+00  3.357751890187E+00
  3.377898401529E+00  3.398165791938E+00  3.418554786689E+00  3.439066115409E+00
  3.459700512102E+00  3.480458715175E+00  3.501341467466E+00  3.522349516270E+00
  3.543483613368E+00  3.564744515048E+00  3.586132982139E+00  3.607649780031E+00
  3.629295678712E+00  3.651071452784E+00  3.672977881501E+00  3.695015748790E+00
  3.717185843282E+00  3.739488958342E+00  3.761925892092E+00  3.784497447445E+00
  3.807204432129E+00  3.830047658722E+00  3.853027944674E+00  3.876146112342E+00
  3.899402989016E+00  3.922799406951E+00  3.946336203392E+00  3.970014220613E+00
  3.993834305936E+00  4.017797311772E+00  4.041904095643E+00  4.066155520216E+00
  4.090552453338E+00  4.115095768058E+00  4.139786342666E+00  4.164625060722E+00
  4.189612811086E+00  4.214750487953E+00  4.240038990881E+00  4.265479224826E+00
  4.291072100175E+00  4.316818532776E+00  4.342719443973E+00  4.368775760636E+00
  4.394988415200E+00  4.421358345691E+00  4.447886495766E+00  4.474573814740E+00
  4.501421257629E+00  4.528429785174E+00  4.555600363885E+00  4.582933966069E+00
  4.610431569865E+00  4.638094159284E+00  4.665922724240E+00  4.693918260585E+00
  4.722081770149E+00  4.750414260770E+00  4.778916746334E+00  4.807590246812E+00
  4.836435788293E+00  4.865454403023E+00  4.894647129441E+00  4.924015012218E+00
  4.953559102291E+00  4.983280456905E+00  5.013180139646E+00  5.043259220484E+00
  5.073518775807E+00  5.103959888462E+00  5.134583647793E+00  5.165391149680E+00
  5.196383496578E+00  5.227561797557E+00  5.258927168342E+00  5.290480731352E+00
  5.322223615741E+00  5.354156957435E+00  5.386281899180E+00  5.418599590575E+00
  5.451111188118E+00  5.483817855247E+00  5.516720762378E+00  5.549821086953E+00
  5.583120013474E+00  5.616618733555E+00  5.650318445957E+00  5.684220356632E+00
  5.718325678772E+00  5.752635632845E+00  5.787151446642E+00  5.821874355322E+00
  5.856805601454E+00  5.891946435062E+00  5.927298113673E+00  5.962861902355E+00
  5.998639073769E+00  6.034630908211E+00  6.070838693661E+00  6.107263725823E+00
  6.143907308178E+00  6.180770752027E+00  6.217855376539E+00  6.255162508798E+00
  6.292693483851E+00  6.330449644754E+00  6.368432342622E+00  6.406642936678E+00
  6.445082794298E+00  6.483753291064E+00  6.522655810810E+00  6.561791745675E+00
  6.601162496149E+00  6.640769471126E+00  6.680614087953E+00  6.720697772481E+00
  6.761021959116E+00  6.801588090870E+00  6.842397619416E+00  6.883452005132E+00
  6.924752717163E+00  6.966301233466E+00  7.008099040867E+00  7.050147635112E+00
  7.092448520922E+00  7.135003212048E+00  7.177813231320E+00  7.220880110708E+00
  7.264205391372E+00  7.307790623721E+00  7.351637367463E+00  7.395747191668E+00
  7.440121674818E+00  7.484762404867E+00  7.529670979296E+00  7.574849005172E+00
  7.620298099203E+00  7.666019887798E+00  7.712016007125E+00  7.758288103167E+00
  7.804837831786E+00  7.851666858777E+00  7.898776859930E+00  7.946169521089E+00
  7.993846538216E+00  8.041809617445E+00  8.090060475150E+00  8.138600838001E+00
  8.187432443029E+00  8.236557037687E+00  8.285976379913E+00  8.335692238193E+00
  8.385706391622E+00  8.436020629971E+00  8.486636753751E+00  8.537556574274E+00
  8.588781913719E+00  8.640314605202E+00  8.692156492833E+00  8.744309431790E+00
  8.796775288381E+00  8.849555940111E+00  8.902653275752E+00  8.956069195406E+00
  9.009805610579E+00  9.063864444242E+00  9.118247630908E+00  9.172957116693E+00
  9.227994859393E+00  9.283362828550E+00  9.339063005521E+00  9.395097383554E+00
  9.451467967855E+00  9.508176775662E+00  9.565225836316E+00  9.622617191334E+00
  9.680352894482E+00  9.738435011849E+00  9.796865621920E+00  9.855646815652E+00
  9.914780696546E+00  9.974269380725E+00  1.003411499701E+01  1.009431968699E+01
  1.015488560511E+01  1.021581491874E+01  1.027710980826E+01  1.033877246711E+01
  1.040080510191E+01  1.046320993252E+01  1.052598919212E+01  1.058914512727E+01
  1.065267999803E+01  1.071659607802E+01  1.078089565449E+01  1.084558102841E+01
  1.091065451459E+01  1.097611844167E+01  1.104197515232E+01  1.110822700324E+01
  1.117487636526E+01  1.124192562345E+01  1.130937717719E+01  1.137723344025E+01
  1.144549684089E+01  1.151416982194E+01  1.158325484087E+01  1.165275436992E+01
  1.172267089613E+01  1.179300692151E+01  1.186376496304E+01  1.193494755282E+01
  1.200655723814E+01  1.207859658156E+01  1.215106816105E+01  1.222397457002E+01
  1.229731841744E+01  1.237110232795E+01  1.244532894191E+01  1.252000091556E+01
  1.259512092106E+01  1.267069164658E+01  1.274671579646E+01  1.282319609124E+01
  1.290013526779E+01  1.297753607940E+01  1.305540129587E+01  1.313373370365E+01
  1.321253610587E+01  1.329181132251E+01  1.337156219044E+01  1.345179156358E+01
  1.353250231296E+01  1.361369732684E+01  1.369537951080E+01  1.377755178787E+01
  1.386021709860E+01  1.394337840119E+01  1.402703867159E+01  1.411120090362E+01
  1.419586810905E+01  1.428104331770E+01  1.436672957761E+01  1.445292995507E+01
  1.453964753480E+01  1.462688542001E+01  1.471464673253E+01  1.480293461293E+01
  1.489175222060E+01  1.498110273393E+01  1.507098935033E+01  1.516141528643E+01
  1.525238377815E+01  1.534389808082E+01  1.543596146930E+01  1.552857723812E+01
  1.562174870155E+01  1.571547919376E+01  1.580977206892E+01  1.590463070133E+01
  1.600005848554E+01  1.609605883646E+01  1.619263518947E+01  1.628979100061E+01
  1.638752974662E+01  1.648585492510E+01  1.658477005465E+01  1.668427867497E+01
  1.678438434702E+01  1.688509065311E+01  1.698640119702E+01  1.708831960421E+01
  1.719084952183E+01  1.729399461896E+01  1.739775858668E+01  1.750214513820E+01
  1.760715800903E+01  1.771280095708E+01  1.781907776282E+01  1.792599222940E+01
  1.803354818278E+01  1.814174947187E+01  1.825059996870E+01  1.836010356852E+01
  1.847026418993E+01  1.858108577507E+01  1.869257228972E+01  1.880472772345E+01
  1.891755608980E+01  1.903106142633E+01  1.914524779489E+01  1.926011928166E+01
  1.937567999735E+01  1.949193407734E+01  1.960888568180E+01  1.972653899589E+01
  1.984489822987E+01  1.996396761925E+01  2.008375142496E+01  2.020425393351E+01
  2.032547945711E+01  2.044743233385E+01  2.057011692786E+01  2.069353762942E+01
  2.081769885520E+01  2.094260504833E+01  2.106826067862E+01  2.119467024269E+01
  2.132183826415E+01  2.144976929373E+01  2.157846790950E+01  2.170793871695E+01
  2.183818634926E+01  2.196921546735E+01  2.210103076016E+01  2.223363694472E+01
  2.236703876638E+01  2.250124099898E+01  2.263624844498E+01  2.277206593565E+01
  2.290869833126E+01  2.304615052125E+01  2.318442742438E+01  2.332353398892E+01
  2.346347519286E+01  2.360425604401E+01  2.374588158028E+01  2.388835686976E+01
  2.403168701098E+01  2.417587713304E+01  2.432093239584E+01  2.446685799022E+01
  2.461365913816E+01  2.476134109299E+01  2.490990913954E+01  2.505936859438E+01
  2.520972480595E+01  2.536098315478E+01  2.551314905371E+01  2.566622794803E+01
  2.582022531572E+01  2.597514666762E+01  2.613099754762E+01  2.628778353291E+01
  2.644551023411E+01  2.660418329551E+01  2.676380839528E+01  2.692439124566E+01
  2.708593759313E+01  2.724845321869E+01  2.741194393800E+01  2.757641560163E+01
  2.774187409524E+01  2.790832533981E+01  2.807577529185E+01  2.824422994360E+01
  2.841369532326E+01  2.858417749520E+01  2.875568256017E+01  2.892821665553E+01
  2.910178595547E+01  2.927639667120E+01  2.945205505123E+01  2.962876738153E+01
  2.980653998582E+01  2.998537922574E+01  3.016529150109E+01  3.034628325010E+01
  3.052836094960E+01  3.071153111530E+01  3.089580030199E+01  3.108117510380E+01
  3.126766215442E+01  3.145526812735E+01  3.164399973611E+01  3.183386373453E+01
  3.202486691694E+01  3.221701611844E+01  3.241031821515E+01  3.260478012444E+01
  3.280040880519E+01  3.299721125802E+01  3.319519452557E+01  3.339436569272E+01
  3.359473188688E+01  3.379630027820E+01  3.399907807987E+01  3.420307254835E+01
  3.440829098364E+01  3.461474072954E+01  3.482242917392E+01  3.503136374896E+01
  3.524155193145E+01  3.545300124304E+01  3.566571925050E+01  3.587971356600E+01
  3.609499184740E+01  3.631156179848E+01  3.652943116927E+01  3.674860775629E+01
  3.696909940283E+01  3.719091399924E+01  3.741405948324E+01  3.763854384014E+01
  3.786437510318E+01  3.809156135380E+01  3.832011072192E+01  3.855003138625E+01
  3.878133157457E+01  3.901401956402E+01  3.924810368140E+01  3.948359230349E+01
  3.972049385731E+01  3.995881682046E+01  4.019856972138E+01  4.043976113971E+01
  4.068239970654E+01  4.092649410478E+01  4.117205306941E+01  4.141908538783E+01
  4.166759990016E+01  4.191760549956E+01  4.216911113255E+01  4.242212579935E+01
  4.267665855415E+01  4.293271850547E+01  4.319031481650E+01  4.344945670540E+01
  4.371015344564E+01  4.397241436631E+01  4.423624885251E+01  4.450166634562E+01
</grid-data>
</grid>
<valence-charge total-charge="10" is-unscreening-charge="yes"
 rescaled-to-z-pseudo="no">
<radfunc>
<data npts="796">
  2.225797627053E-03  2.231160908021E-03  2.247316736981E-03  2.274466999724E-03
  2.312533447038E-03  2.363094602456E-03  2.425876143651E-03  2.500700481420E-03
  2.590617051873E-03  2.693291869754E-03  2.811302476389E-03  2.942305448029E-03
  3.093241350138E-03  3.264648841056E-03  3.456332781849E-03  3.667167876784E-03
  3.894915800936E-03  4.136081634385E-03  4.415724459338E-03  4.706054514160E-03
  5.039295425835E-03  5.377360226240E-03  5.761032382771E-03  6.197333279665E-03
  6.628708676505E-03  7.113073582875E-03  7.657821051343E-03  8.271485877495E-03
  8.859773717143E-03  9.513024017165E-03  1.023929622467E-02  1.104773586449E-02
  1.194872742488E-02  1.277871784933E-02  1.368881846101E-02  1.468757005053E-02
  1.578448151514E-02  1.699014216040E-02  1.831634684587E-02  1.977623534925E-02
  2.105018172093E-02  2.242728072797E-02  2.391653657684E-02  2.552776751426E-02
  2.727167906612E-02  2.915994350548E-02  3.120528599696E-02  3.342157787985E-02
  3.582393756352E-02  3.842883951560E-02  4.125423182413E-02  4.431966280746E-02
  4.678899613969E-02  4.941495251165E-02  5.220783131534E-02  5.517860276301E-02
  5.833894847524E-02  6.170130401440E-02  6.527890337870E-02  6.908582545776E-02
  7.313704243396E-02  7.744847009352E-02  8.203701998786E-02  8.692065335832E-02
  9.211843670542E-02  9.765059884704E-02  1.035385892676E-01  1.098051375119E-01
  1.164743133229E-01  1.235715871590E-01  1.311238906576E-01  1.391596765310E-01
  1.477089772936E-01  1.568034621197E-01  1.664764910201E-01  1.732638512755E-01
  1.803347460701E-01  1.877003739864E-01  1.953722970237E-01  2.033624447543E-01
  2.116831177097E-01  2.203469898963E-01  2.293671103342E-01  2.387569035035E-01
  2.485301685764E-01  2.587010773009E-01  2.692841703971E-01  2.802943523156E-01
  2.917468841982E-01  3.036573748717E-01  3.160417696968E-01  3.289163370824E-01
  3.422976524672E-01  3.562025795603E-01  3.706482486224E-01  3.856520315598E-01
  4.012315135964E-01  4.174044612764E-01  4.341887865471E-01  4.516025066612E-01
  4.696636996329E-01  4.883904549780E-01  5.078008194649E-01  5.279127376007E-01
  5.487439865787E-01  5.703121054168E-01  5.926343180183E-01  6.157274498998E-01
  6.396078383394E-01  6.642912357138E-01  6.897927058144E-01  7.161265129531E-01
  7.433060037015E-01  7.713434811365E-01  8.002500715089E-01  8.300355832956E-01
  8.607083586491E-01  8.922751173171E-01  9.247407931738E-01  9.581083635754E-01
  9.923786718401E-01  1.027550243239E+00  1.063619094987E+00  1.100578540831E+00
  1.138418990946E+00  1.177127747979E+00  1.216688800216E+00  1.257082612971E+00
  1.298285919480E+00  1.340271512697E+00  1.383008039577E+00  1.426459799586E+00
  1.470586549352E+00  1.492889180898E+00  1.515343315519E+00  1.537942563492E+00
  1.560680218069E+00  1.583549250697E+00  1.606542306506E+00  1.629651700067E+00
  1.652869411475E+00  1.676187082738E+00  1.699596014535E+00  1.723087163337E+00
  1.746651138934E+00  1.770278202376E+00  1.793958264371E+00  1.817680884146E+00
  1.841435268812E+00  1.865210273248E+00  1.888994400529E+00  1.912775802935E+00
  1.936542283551E+00  1.960281298493E+00  1.983979959778E+00  2.007625038870E+00
  2.031202970923E+00  2.054699859739E+00  2.078101483469E+00  2.101393301085E+00
  2.124560459629E+00  2.147587802276E+00  2.170459877216E+00  2.193160947385E+00
  2.215675001053E+00  2.237985763288E+00  2.260076708312E+00  2.281931072752E+00
  2.303531869811E+00  2.324861904351E+00  2.345903788900E+00  2.366639960601E+00
  2.387052699071E+00  2.407124145208E+00  2.426836320909E+00  2.446171149715E+00
  2.465110478355E+00  2.483636099196E+00  2.501729773566E+00  2.519373255931E+00
  2.536548318927E+00  2.553236779179E+00  2.569420523922E+00  2.585081538356E+00
  2.600201933717E+00  2.614763976013E+00  2.628750115388E+00  2.642143016058E+00
  2.654925586770E+00  2.667081011727E+00  2.678592781919E+00  2.689444726796E+00
  2.699621046211E+00  2.709106342567E+00  2.717885653093E+00  2.725944482163E+00
  2.733268833589E+00  2.739845242785E+00  2.745660808736E+00  2.750703225665E+00
  2.754960814308E+00  2.758422552714E+00  2.761078106456E+00  2.762917858166E+00
  2.763932936292E+00  2.764115242977E+00  2.763457480957E+00  2.761953179383E+00
  2.759596718457E+00  2.756383352799E+00  2.752309233424E+00  2.747371428263E+00
  2.741567941102E+00  2.734897728876E+00  2.727360717209E+00  2.718957814136E+00
  2.709690921913E+00  2.699562946842E+00  2.688577807059E+00  2.676740438194E+00
  2.664056796875E+00  2.650533862008E+00  2.636179633794E+00  2.621003130459E+00
  2.605014382656E+00  2.588224425530E+00  2.570645288434E+00  2.552289982302E+00
  2.533172484676E+00  2.513307722418E+00  2.492711552129E+00  2.471400738316E+00
  2.449392929354E+00  2.426706631298E+00  2.403361179612E+00  2.379376708904E+00
  2.354774120729E+00  2.329575049574E+00  2.303801827120E+00  2.277477444892E+00
  2.250625515412E+00  2.223270231990E+00  2.195436327272E+00  2.167149030688E+00
  2.138434024939E+00  2.109317401679E+00  2.079825616518E+00  2.049985443528E+00
  2.019823929370E+00  1.989368347236E+00  1.958646150715E+00  1.927684927797E+00
  1.896512355248E+00  1.865156153511E+00  1.833644041757E+00  1.802003693216E+00
  1.770262691714E+00  1.738448489175E+00  1.706588364284E+00  1.674709382373E+00
  1.642838339103E+00  1.611001633421E+00  1.579225106559E+00  1.547533996250E+00
  1.515952936495E+00  1.484505924148E+00  1.453216299495E+00  1.422106725754E+00
  1.391199170065E+00  1.360514885843E+00  1.330074396082E+00  1.299897477805E+00
  1.270003147634E+00  1.240409648529E+00  1.211133937866E+00  1.182190119420E+00
  1.153589921935E+00  1.125345303504E+00  1.097467112947E+00  1.069965508214E+00
  1.042849907023E+00  1.016129003231E+00  9.898107788356E-01  9.639025166336E-01
  9.384108136184E-01  9.133415949726E-01  8.887001286596E-01  8.644910405569E-01
  8.407183300871E-01  8.173853863020E-01  7.944950043751E-01  7.720494024615E-01
  7.500502388812E-01  7.284986295857E-01  7.073951658670E-01  6.867399322700E-01
  6.665325246698E-01  6.467720684769E-01  6.274572369336E-01  6.085862694667E-01
  5.901569900634E-01  5.721668256360E-01  5.546128243447E-01  5.374916738484E-01
  5.207997194531E-01  5.045329821307E-01  4.886871763828E-01  4.732577279130E-01
  4.582397911051E-01  4.436282662627E-01  4.294178165972E-01  4.156028849424E-01
  4.021777101758E-01  3.891363433278E-01  3.764726633607E-01  3.641803926029E-01
  3.522531118216E-01  3.406842749213E-01  3.294672232549E-01  3.185951995362E-01
  3.080613613425E-01  2.978587942005E-01  2.879805242439E-01  2.784195304399E-01
  2.691687563747E-01  2.602211215972E-01  2.515695325140E-01  2.432068928357E-01
  2.351261135716E-01  2.273201225723E-01  2.197818736221E-01  2.125043550801E-01
  2.054805980754E-01  1.987036842565E-01  1.921667531013E-01  1.858630087912E-01
  1.797857266547E-01  1.739282591872E-01  1.682840416532E-01  1.628465972787E-01
  1.576095420410E-01  1.525665890648E-01  1.477115526329E-01  1.430383518207E-01
  1.385410137647E-01  1.342136765734E-01  1.300505918922E-01  1.260461271326E-01
  1.221947673761E-01  1.184911169638E-01  1.149299007844E-01  1.115059652718E-01
  1.082142791243E-01  1.050499337595E-01  1.020081435164E-01  9.908424562061E-02
  9.627369992504E-02  9.357208844216E-02  9.097511468273E-02  8.847860281688E-02
  8.607849667370E-02  8.377085859594E-02  8.155186816634E-02  7.941782082223E-02
  7.736512637476E-02  7.539030744847E-02  7.348999785631E-02  7.166094092406E-02
  6.989998777673E-02  6.820409559792E-02  6.657032587149E-02  6.499584261263E-02
  6.347791059370E-02  6.201389356779E-02  6.060125249156E-02  5.923754374648E-02
  5.792041735682E-02  5.664761520089E-02  5.541696921182E-02  5.422639956335E-02
  5.307391283627E-02  5.195760016150E-02  5.087563533636E-02  4.982627291148E-02
  4.880784624692E-02  4.781876553713E-02  4.685751580564E-02  4.592265487136E-02
  4.501281128958E-02  4.412668227133E-02  4.326303158591E-02  4.242068745139E-02
  4.159854041878E-02  4.079554125523E-02  4.001069883204E-02  3.924307802292E-02
  3.849179761773E-02  3.775602825670E-02  3.703499038967E-02  3.632795226445E-02
  3.563422794813E-02  3.495317538437E-02  3.428419448966E-02  3.362672529079E-02
  3.298024610553E-02  3.234427176814E-02  3.171835190076E-02  3.110206923181E-02
  3.049503796190E-02  2.989690217757E-02  2.930733431313E-02  2.872603366037E-02
  2.815272492609E-02  2.758715683692E-02  2.702910079091E-02  2.647834955541E-02
  2.593471601024E-02  2.539803193563E-02  2.486814684378E-02  2.434492685323E-02
  2.382825360497E-02  2.331802321931E-02  2.281414529231E-02  2.231654193072E-02
  2.182514682439E-02  2.133990435475E-02  2.086076873854E-02  2.038770320532E-02
  1.992067920788E-02  1.945967566427E-02  1.900467823048E-02  1.855567860252E-02
  1.811267384719E-02  1.767566576027E-02  1.724466025144E-02  1.681966675497E-02
  1.640069766553E-02  1.598776779834E-02  1.558089387310E-02  1.518009402122E-02
  1.478538731587E-02  1.439679332454E-02  1.401433168392E-02  1.363802169674E-02
  1.326788195073E-02  1.290392995945E-02  1.254618182511E-02  1.219465192340E-02
  1.184935261043E-02  1.151029395191E-02  1.117748347452E-02  1.085092593979E-02
  1.053062314027E-02  1.021657371815E-02  9.908773006269E-03  9.607212891240E-03
  9.311881698668E-03  9.022764100002E-03  8.739841040726E-03  8.463089689377E-03
  8.192483406805E-03  7.927991735034E-03  7.669580405154E-03  7.417211362379E-03
  7.170842809408E-03  6.930429265102E-03  6.695921638433E-03  6.467267316423E-03
  6.244410264962E-03  6.027291141373E-03  5.815847417554E-03  5.610013512553E-03
  5.409720933415E-03  5.214898423163E-03  5.025472114800E-03  4.841365690242E-03
  4.662500543135E-03  4.488795944555E-03  4.320169210624E-03  4.156535871139E-03
  3.997809838369E-03  3.843903575203E-03  3.694728261936E-03  3.550193961002E-03
  3.410209779026E-03  3.274684025658E-03  3.143524368653E-03  3.016637984786E-03
  2.893931706185E-03  2.775312161744E-03  2.660685913351E-03  2.549959586662E-03
  2.443039996244E-03  2.339834264936E-03  2.240249937304E-03  2.144195087137E-03
  2.051578418925E-03  1.962309363329E-03  1.876298166652E-03  1.793455974377E-03
  1.713694908829E-03  1.636928141063E-03  1.563069957103E-03  1.492035818647E-03
  1.423742418394E-03  1.358107730151E-03  1.295051053891E-03  1.234493055945E-03
  1.176355804500E-03  1.120562800620E-03  1.067039004961E-03  1.015710860400E-03
  9.665063107691E-04  9.193548158973E-04  8.741873631638E-04  8.309364757607E-04
  7.895362178624E-04  7.499221968947E-04  7.120315630938E-04  6.758030065395E-04
  6.411767518426E-04  6.080945506591E-04  5.764996721999E-04  5.463368918968E-04
  5.175524783777E-04  4.900941788998E-04  4.639112033799E-04  4.389542071543E-04
  4.151752725939E-04  3.925278896925E-04  3.709669357392E-04  3.504486541785E-04
  3.309306327545E-04  3.123717810298E-04  2.947323073619E-04  2.779736954146E-04
  2.620586802752E-04  2.469512242429E-04  2.326164923489E-04  2.190208276626E-04
  2.061317264344E-04  1.939178131207E-04  1.823488153334E-04  1.713955387522E-04
  1.610298420336E-04  1.512246117490E-04  1.419537373816E-04  1.331920864073E-04
  1.249154794851E-04  1.171006657791E-04  1.097252984333E-04  1.027679102178E-04
  9.620788936561E-05  9.002545561612E-05  8.420163648146E-05  7.871824375116E-05
  7.355785024920E-05  6.870376685732E-05  6.414001981778E-05  5.985132832800E-05
  5.582308243945E-05  5.204132127213E-05  4.849271155602E-05  4.516452651018E-05