Ba    ONCVPSP-4.0.1  r_core=   1.95988   1.80243   1.90213   2.10575
56.0000     10.0000      220125    zatom,zion,pspd
8      11   3     4   600     0    pspcod,pspxc,lmax,lloc,mmax,r2well
5.99000000  5.00000000  0.00000000    rchrg fchrg qchrg
2     2     2     2     0    nproj
1     1           extension_switch
0                         6.5389398505981E+00  6.3778962062585E-01
1  0.0000000000000E+00 -6.8410554998621E-12  6.7998176533912E-12
2  1.0000000000000E-02  2.5288203648271E-02 -4.0170144962807E-03
3  2.0000000000000E-02  5.0577231666351E-02 -8.0618418662438E-03
4  3.0000000000000E-02  7.5867848812045E-02 -1.2162073926808E-02
5  4.0000000000000E-02  1.0116070075490E-01 -1.6344861271956E-02
6  5.0000000000000E-02  1.2645625487322E-01 -2.0636694889674E-02
7  6.0000000000000E-02  1.5175474146555E-01 -2.5063190458418E-02
8  7.0000000000000E-02  1.7705609552294E-01 -2.9648876224926E-02
9  8.0000000000000E-02  2.0235989921525E-01 -3.4416985371989E-02
10  9.0000000000000E-02  2.2766532525299E-01 -3.9389253792534E-02
11  1.0000000000000E-01  2.5297108129572E-01 -4.4585724194359E-02
12  1.1000000000000E-01  2.7827535558826E-01 -5.0024557467737E-02
13  1.2000000000000E-01  3.0357576401764E-01 -5.5721852255162E-02
14  1.3000000000000E-01  3.2886929879500E-01 -6.1691473667712E-02
15  1.4000000000000E-01  3.5415227897889E-01 -6.7944892095665E-02
16  1.5000000000000E-01  3.7942030306794E-01 -7.4491033060649E-02
17  1.6000000000000E-01  4.0466820390240E-01 -8.1336139052421E-02
18  1.7000000000000E-01  4.2989000612445E-01 -8.8483644284303E-02
19  1.8000000000000E-01  4.5507888645665E-01 -9.5934063286388E-02
20  1.9000000000000E-01  4.8022713706589E-01 -1.0368489423447E-01
21  2.0000000000000E-01  5.0532613228634E-01 -1.1173053788412E-01
22  2.1000000000000E-01  5.3036629897904E-01 -1.2006223294290E-01
23  2.2000000000000E-01  5.5533709080755E-01 -1.2866800866852E-01
24  2.3000000000000E-01  5.8022696670798E-01 -1.3753265542727E-01
25  2.4000000000000E-01  6.0502337382822E-01 -1.4663771388273E-01
26  2.5000000000000E-01  6.2971273520396E-01 -1.5596148341216E-01
27  2.6000000000000E-01  6.5428044242912E-01 -1.6547905026415E-01
28  2.7000000000000E-01  6.7871085356466E-01 -1.7516233587791E-01
29  2.8000000000000E-01  7.0298729651259E-01 -1.8498016568154E-01
30  2.9000000000000E-01  7.2709207806150E-01 -1.9489835857301E-01
31  3.0000000000000E-01  7.5100649878553E-01 -2.0487983716607E-01
32  3.1000000000000E-01  7.7471087395119E-01 -2.1488475875200E-01
33  3.2000000000000E-01  7.9818456055530E-01 -2.2487066678896E-01
34  3.3000000000000E-01  8.2140599058288E-01 -2.3479266258502E-01
35  3.4000000000000E-01  8.4435271053649E-01 -2.4460359668864E-01
36  3.5000000000000E-01  8.6700142724833E-01 -2.5425427934329E-01
37  3.6000000000000E-01  8.8932805994362E-01 -2.6369370920207E-01
38  3.7000000000000E-01  9.1130779847894E-01 -2.7286931933595E-01
39  3.8000000000000E-01  9.3291516763238E-01 -2.8172723940494E-01
40  3.9000000000000E-01  9.5412409727453E-01 -2.9021257269989E-01
41  4.0000000000000E-01  9.7490799819999E-01 -2.9826968660247E-01
42  4.1000000000000E-01  9.9523984335011E-01 -3.0584251485601E-01
43  4.2000000000000E-01  1.0150922541079E+00 -3.1287486989112E-01
44  4.3000000000000E-01  1.0344375912973E+00 -3.1931076330952E-01
45  4.4000000000000E-01  1.0532480504723E+00 -3.2509473249922E-01
46  4.5000000000000E-01  1.0714957610336E+00 -3.3017217123589E-01
47  4.6000000000000E-01  1.0891528886694E+00 -3.3448966202029E-01
48  4.7000000000000E-01  1.1061917405731E+00 -3.3799530781295E-01
49  4.8000000000000E-01  1.1225848728562E+00 -3.4063906075461E-01
50  4.9000000000000E-01  1.1383051995386E+00 -3.4237304540818E-01
51  5.0000000000000E-01  1.1533261024705E+00 -3.4315187402381E-01
52  5.1000000000000E-01  1.1676215415142E+00 -3.4293295131689E-01
53  5.2000000000000E-01  1.1811661642969E+00 -3.4167676625872E-01
54  5.3000000000000E-01  1.1939354148299E+00 -3.3934716841247E-01
55  5.4000000000000E-01  1.2059056402818E+00 -3.3591162640420E-01
56  5.5000000000000E-01  1.2170541951932E+00 -3.3134146619948E-01
57  5.6000000000000E-01  1.2273595424229E+00 -3.2561208696123E-01
58  5.7000000000000E-01  1.2368013501295E+00 -3.1870315239405E-01
59  5.8000000000000E-01  1.2453605841069E+00 -3.1059875563286E-01
60  5.9000000000000E-01  1.2530195948196E+00 -3.0128755591074E-01
61  6.0000000000000E-01  1.2597621985136E+00 -2.9076288543814E-01
62  6.1000000000000E-01  1.2655737518152E+00 -2.7902282514614E-01
63  6.2000000000000E-01  1.2704412192761E+00 -2.6607024818469E-01
64  6.3000000000000E-01  1.2743532333697E+00 -2.5191283032391E-01
65  6.4000000000000E-01  1.2773001465029E+00 -2.3656302667905E-01
66  6.5000000000000E-01  1.2792740746627E+00 -2.2003801446614E-01
67  6.6000000000000E-01  1.2802689323881E+00 -2.0235960179287E-01
68  6.7000000000000E-01  1.2802804588216E+00 -1.8355410279549E-01
69  6.8000000000000E-01  1.2793062346711E+00 -1.6365217974421E-01
70  6.9000000000000E-01  1.2773456899868E+00 -1.4268865305490E-01
71  7.0000000000000E-01  1.2744001027355E+00 -1.2070228045872E-01
72  7.1000000000000E-01  1.2704725882354E+00 -9.7735506893038E-02
73  7.2000000000000E-01  1.2655680795911E+00 -7.3834186980826E-02
74  7.3000000000000E-01  1.2596932993525E+00 -4.9047282260502E-02
75  7.4000000000000E-01  1.2528567226950E+00 -2.3426535609102E-02
76  7.5000000000000E-01  1.2450685324988E+00  2.9738744339982E-03
77  7.6000000000000E-01  1.2363405667776E+00  3.0097696490208E-02
78  7.7000000000000E-01  1.2266862589761E+00  5.7886983137575E-02
79  7.8000000000000E-01  1.2161205717254E+00  8.6282478308562E-02
80  7.9000000000000E-01  1.2046599247018E+00  1.1522401175107E-01
81  8.0000000000000E-01  1.1923221172934E+00  1.4465089687706E-01
82  8.1000000000000E-01  1.1791262468264E+00  1.7450232821959E-01
83  8.2000000000000E-01  1.1650926231421E+00  2.0471777465016E-01
84  8.3000000000000E-01  1.1502426803540E+00  2.3523736447738E-01
85  8.4000000000000E-01  1.1345988866347E+00  2.6600225855385E-01
86  8.5000000000000E-01  1.1181846529035E+00  2.9695500756503E-01
87  8.6000000000000E-01  1.1010242412889E+00  3.2803988975902E-01
88  8.7000000000000E-01  1.0831426742440E+00  3.5920322550273E-01
89  8.8000000000000E-01  1.0645656451762E+00  3.9039366521530E-01
90  8.9000000000000E-01  1.0453194314358E+00  4.2156244743524E-01
91  9.0000000000000E-01  1.0254308104778E+00  4.5266362402092E-01
92  9.1000000000000E-01  1.0049269799705E+00  4.8365424976441E-01
93  9.2000000000000E-01  9.8383548257765E-01  5.1449453401373E-01
94  9.3000000000000E-01  9.6218413608254E-01  5.4514795224615E-01
95  9.4000000000000E-01  9.4000096945993E-01  5.7558131591334E-01
96  9.5000000000000E-01  9.1731416542531E-01  6.0576479928307E-01
97  9.6000000000000E-01  8.9415200991392E-01  6.3567192243037E-01
98  9.7000000000000E-01  8.7054284885423E-01  6.6527948997878E-01
99  9.8000000000000E-01  8.4651505250970E-01  6.9456748565517E-01
100  9.9000000000000E-01  8.2209698756588E-01  7.2351892319619E-01
101  1.0000000000000E+00  7.9731699704030E-01  7.5211965462554E-01
102  1.0100000000000E+00  7.7220338799007E-01  7.8035813740428E-01
103  1.0200000000000E+00  7.4678442688824E-01  8.0822516243658E-01
104  1.0300000000000E+00  7.2108834243529E-01  8.3571354538554E-01
105  1.0400000000000E+00  6.9514333546899E-01  8.6281778421314E-01
106  1.0500000000000E+00  6.6897759553369E-01  8.8953368629937E-01
107  1.0600000000000E+00  6.4261932357159E-01  9.1585796891480E-01
108  1.0700000000000E+00  6.1609676010429E-01  9.4178783721070E-01
109  1.0800000000000E+00  5.8943821818349E-01  9.6732054424989E-01
110  1.0900000000000E+00  5.6267212030729E-01  9.9245293792213E-01
111  1.1000000000000E+00  5.3582703842337E-01  1.0171809998690E+00
112  1.1100000000000E+00  5.0893173607362E-01  1.0414993817771E+00
113  1.1200000000000E+00  4.8201521167775E-01  1.0654009445875E+00
114  1.1300000000000E+00  4.5510674190615E-01  1.0888763063004E+00
115  1.1400000000000E+00  4.2823592405679E-01  1.1119134041400E+00
116  1.1500000000000E+00  4.0143271632640E-01  1.1344970768633E+00
117  1.1600000000000E+00  3.7472747485419E-01  1.1566086729668E+00
118  1.1700000000000E+00  3.4815098641730E-01  1.1782256904492E+00
119  1.1800000000000E+00  3.2173449567026E-01  1.1993214536353E+00
120  1.1900000000000E+00  2.9550972584787E-01  1.2198648323547E+00
121  1.2000000000000E+00  2.6950889189053E-01  1.2398200084940E+00
122  1.2100000000000E+00  2.4376470500381E-01  1.2591462946132E+00
123  1.2200000000000E+00  2.1831036773005E-01  1.2777980089282E+00
124  1.2300000000000E+00  1.9317955868731E-01  1.2957244105238E+00
125  1.2400000000000E+00  1.6840640622154E-01  1.3128696981668E+00
126  1.2500000000000E+00  1.4402545031839E-01  1.3291730755549E+00
127  1.2600000000000E+00  1.2007159223317E-01  1.3445688852521E+00
128  1.2700000000000E+00  9.6580031418168E-02  1.3589868129451E+00
129  1.2800000000000E+00  7.3586189456554E-02  1.3723521629993E+00
130  1.2900000000000E+00  5.1125620848405E-02  1.3845862056171E+00
131  1.3000000000000E+00  2.9233910638153E-02  1.3956065951942E+00
132  1.3100000000000E+00  7.9465590200445E-03  1.4053278587557E+00
133  1.3200000000000E+00 -1.2701146790702E-02  1.4136619526280E+00
134  1.3300000000000E+00 -3.2674272979916E-02  1.4205188847716E+00
135  1.3400000000000E+00 -5.1938391255266E-02  1.4258073994780E+00
136  1.3500000000000E+00 -7.0459741919624E-02  1.4294357204249E+00
137  1.3600000000000E+00 -8.8205407000761E-02  1.4313123473880E+00
138  1.3700000000000E+00 -1.0514349239620E-01  1.4313469012437E+00
139  1.3800000000000E+00 -1.2124331785287E-01  1.4294510112627E+00
140  1.3900000000000E+00 -1.3647561346941E-01  1.4255392381026E+00
141  1.4000000000000E+00 -1.5081272128601E-01  1.4195300253588E+00
142  1.4100000000000E+00 -1.6422880041396E-01  1.4113466720357E+00
143  1.4200000000000E+00 -1.7670003405648E-01  1.4009183178682E+00
144  1.4300000000000E+00 -1.8820483668421E-01  1.3881809330436E+00
145  1.4400000000000E+00 -1.9872405955529E-01  1.3730783035711E+00
146  1.4500000000000E+00 -2.0824119271063E-01  1.3555630033129E+00
147  1.4600000000000E+00 -2.1674256153298E-01  1.3355973435286E+00
148  1.4700000000000E+00 -2.2421751593194E-01  1.3131542907105E+00
149  1.4800000000000E+00 -2.3065861020898E-01  1.2882183434849E+00
150  1.4900000000000E+00 -2.3606177166555E-01  1.2607863594410E+00
151  1.5000000000000E+00 -2.4042645604500E-01  1.2308683229138E+00
152  1.5100000000000E+00 -2.4375578794447E-01  1.1984880449999E+00
153  1.5200000000000E+00 -2.4605668439695E-01  1.1636837874166E+00
154  1.5300000000000E+00 -2.4733995990497E-01  1.1265088022274E+00
155  1.5400000000000E+00 -2.4762041130703E-01  1.0870317799494E+00
156  1.5500000000000E+00 -2.4691688097318E-01  1.0453371991248E+00
157  1.5600000000000E+00 -2.4525229695874E-01  1.0015255710751E+00
158  1.5700000000000E+00 -2.4265368889189E-01  9.5571357426256E-01
159  1.5800000000000E+00 -2.3915217853223E-01  9.0803407344753E-01
160  1.5900000000000E+00 -2.3478294411108E-01  8.5863601965235E-01
161  1.6000000000000E+00 -2.2958515774989E-01  8.0768422781075E-01
162  1.6100000000000E+00 -2.2360189544764E-01  7.5535902989216E-01
163  1.6200000000000E+00 -2.1688001933198E-01  7.0185580223649E-01
164  1.6300000000000E+00 -2.0947003207810E-01  6.4738436680467E-01
165  1.6400000000000E+00 -2.0142590361410E-01  5.9216826703842E-01
166  1.6500000000000E+00 -1.9280487044815E-01  5.3644392002034E-01
167  1.6600000000000E+00 -1.8366720817125E-01  4.8045964762257E-01
168  1.6700000000000E+00 -1.7407597790551E-01  4.2447459032097E-01
169  1.6800000000000E+00 -1.6409674768188E-01  3.6875750832329E-01
170  1.6900000000000E+00 -1.5379728993944E-01  3.1358547560417E-01
171  1.7000000000000E+00 -1.4324725653982E-01  2.5924247334968E-01
172  1.7100000000000E+00 -1.3251783288274E-01  2.0601789018031E-01
173  1.7200000000000E+00 -1.2168137289016E-01  1.5420493733578E-01
174  1.7300000000000E+00 -1.1081101679577E-01  1.0409898776028E-01
175  1.7400000000000E+00 -9.9980293831184E-02  5.5995848715248E-02
176  1.7500000000000E+00 -8.9262712039510E-02  1.0189978162185E-02
177  1.7600000000000E+00 -7.8731337568963E-02 -3.3027344305916E-02
178  1.7700000000000E+00 -6.8458365902659E-02 -7.3369880755481E-02
179  1.7800000000000E+00 -5.8514687536443E-02 -1.1055832100713E-01
180  1.7900000000000E+00 -4.8969450628878E-02 -1.4432218010433E-01
181  1.8000000000000E+00 -3.9889626288623E-02 -1.7440167731071E-01
182  1.8100000000000E+00 -3.1339569660669E-02 -2.0054964071199E-01
183  1.8200000000000E+00 -2.3380836231585E-02 -2.2253189101492E-01
184  1.8300000000000E+00 -1.6072124239636E-02 -2.4012697442243E-01
185  1.8400000000000E+00 -9.4690434292010E-03 -2.5312708385121E-01
186  1.8500000000000E+00 -3.6237532605136E-03 -2.6133965256114E-01
187  1.8600000000000E+00  1.4153039350311E-03 -2.6458865347088E-01
188  1.8700000000000E+00  5.6028425471596E-03 -2.6271393581994E-01
189  1.8800000000000E+00  8.8973215232786E-03 -2.5557302367413E-01
190  1.8900000000000E+00  1.1263755107768E-02 -2.4304806705101E-01
191  1.9000000000000E+00  1.2671901257857E-02 -2.2504251914177E-01
192  1.9100000000000E+00  1.3096440365319E-02 -2.0148192204031E-01
193  1.9200000000000E+00  1.2517158491692E-02 -1.7231474237499E-01
194  1.9300000000000E+00  1.0904071263647E-02 -1.3736509492300E-01
195  1.9400000000000E+00  8.3810251336469E-03 -9.7966436523595E-02
196  1.9500000000000E+00  4.4441406048506E-03 -4.9100748509609E-02
197  1.9600000000000E+00 -2.3842611887027E-05  2.5935102286220E-04
198  1.9700000000000E+00 -1.5773444487679E-04  1.7022410427112E-03
199  1.98  0. -0.
200  1.99 -0.  0.
201  2.00  0. -0.
202  2.01  0.  0.
203  2.02  0.  0.
204  2.03  0.  0.
205  2.04  0.  0.
206  2.05  0.  0.
207  2.06  0.  0.
208  2.07  0.  0.
209  2.08  0.  0.
210  2.09  0.  0.
211  2.10  0.  0.
212  2.11  0.  0.
213  2.12  0.  0.
214  2.13  0.  0.
215  2.14  0.  0.
216  2.15  0.  0.
217  2.16  0.  0.
218  2.17  0.  0.
219  2.18  0.  0.
220  2.19  0.  0.
221  2.20  0.  0.
222  2.21  0.  0.
223  2.22  0.  0.
224  2.23  0.  0.
225  2.24  0.  0.
226  2.25  0.  0.
227  2.26  0.  0.
228  2.27  0.  0.
229  2.28  0.  0.
230  2.29  0.  0.
231  2.30  0.  0.
232  2.31  0.  0.
233  2.32  0.  0.
234  2.33  0.  0.
235  2.34  0.  0.
236  2.35  0.  0.
237  2.36  0.  0.
238  2.37  0.  0.
239  2.38  0.  0.
240  2.39  0.  0.
241  2.40  0.  0.
242  2.41  0.  0.
243  2.42  0.  0.
244  2.43  0.  0.
245  2.44  0.  0.
246  2.45  0.  0.
247  2.46  0.  0.
248  2.47  0.  0.
249  2.48  0.  0.
250  2.49  0.  0.
251  2.50  0.  0.
252  2.51  0.  0.
253  2.52  0.  0.
254  2.53  0.  0.
255  2.54  0.  0.
256  2.55  0.  0.
257  2.56  0.  0.
258  2.57  0.  0.
259  2.58  0.  0.
260  2.59  0.  0.
261  2.60  0.  0.
262  2.61  0.  0.
263  2.62  0.  0.
264  2.63  0.  0.
265  2.64  0.  0.
266  2.65  0.  0.
267  2.66  0.  0.
268  2.67  0.  0.
269  2.68  0.  0.
270  2.69  0.  0.
271  2.70  0.  0.
272  2.71  0.  0.
273  2.72  0.  0.
274  2.73  0.  0.
275  2.74  0.  0.
276  2.75  0.  0.
277  2.76  0.  0.
278  2.77  0.  0.
279  2.78  0.  0.
280  2.79  0.  0.
281  2.80  0.  0.
282  2.81  0.  0.
283  2.82  0.  0.
284  2.83  0.  0.
285  2.84  0.  0.
286  2.85  0.  0.
287  2.86  0.  0.
288  2.87  0.  0.
289  2.88  0.  0.
290  2.89  0.  0.
291  2.90  0.  0.
292  2.91  0.  0.
293  2.92  0.  0.
294  2.93  0.  0.
295  2.94  0.  0.
296  2.95  0.  0.
297  2.96  0.  0.
298  2.97  0.  0.
299  2.98  0.  0.
300  2.99  0.  0.
301  3.00  0.  0.
302  3.01  0.  0.
303  3.02  0.  0.
304  3.03  0.  0.
305  3.04  0.  0.
306  3.05  0.  0.
307  3.06  0.  0.
308  3.07  0.  0.
309  3.08  0.  0.
310  3.09  0.  0.
311  3.10  0.  0.
312  3.11  0.  0.
313  3.12  0.  0.
314  3.13  0.  0.
315  3.14  0.  0.
316  3.15  0.  0.
317  3.16  0.  0.
318  3.17  0.  0.
319  3.18  0.  0.
320  3.19  0.  0.
321  3.20  0.  0.
322  3.21  0.  0.
323  3.22  0.  0.
324  3.23  0.  0.
325  3.24  0.  0.
326  3.25  0.  0.
327  3.26  0.  0.
328  3.27  0.  0.
329  3.28  0.  0.
330  3.29  0.  0.
331  3.30  0.  0.
332  3.31  0.  0.
333  3.32  0.  0.
334  3.33  0.  0.
335  3.34  0.  0.
336  3.35  0.  0.
337  3.36  0.  0.
338  3.37  0.  0.
339  3.38  0.  0.
340  3.39  0.  0.
341  3.40  0.  0.
342  3.41  0.  0.
343  3.42  0.  0.
344  3.43  0.  0.
345  3.44  0.  0.
346  3.45  0.  0.
347  3.46  0.  0.
348  3.47  0.  0.
349  3.48  0.  0.
350  3.49  0.  0.
351  3.50  0.  0.
352  3.51  0.  0.
353  3.52  0.  0.
354  3.53  0.  0.
355  3.54  0.  0.
356  3.55  0.  0.
357  3.56  0.  0.
358  3.57  0.  0.
359  3.58  0.  0.
360  3.59  0.  0.
361  3.60  0.  0.
362  3.61  0.  0.
363  3.62  0.  0.
364  3.63  0.  0.
365  3.64  0.  0.
366  3.65  0.  0.
367  3.66  0.  0.
368  3.67  0.  0.
369  3.68  0.  0.
370  3.69  0.  0.
371  3.70  0.  0.
372  3.71  0.  0.
373  3.72  0.  0.
374  3.73  0.  0.
375  3.74  0.  0.
376  3.75  0.  0.
377  3.76  0.  0.
378  3.77  0.  0.
379  3.78  0.  0.
380  3.79  0.  0.
381  3.80  0.  0.
382  3.81  0.  0.
383  3.82  0.  0.
384  3.83  0.  0.
385  3.84  0.  0.
386  3.85  0.  0.
387  3.86  0.  0.
388  3.87  0.  0.
389  3.88  0.  0.
390  3.89  0.  0.
391  3.90  0.  0.
392  3.91  0.  0.
393  3.92  0.  0.
394  3.93  0.  0.
395  3.94  0.  0.
396  3.95  0.  0.
397  3.96  0.  0.
398  3.97  0.  0.
399  3.98  0.  0.
400  3.99  0.  0.
401  4.00  0.  0.
402  4.01  0.  0.
403  4.02  0.  0.
404  4.03  0.  0.
405  4.04  0.  0.
406  4.05  0.  0.
407  4.06  0.  0.
408  4.07  0.  0.
409  4.08  0.  0.
410  4.09  0.  0.
411  4.10  0.  0.
412  4.11  0.  0.
413  4.12  0.  0.
414  4.13  0.  0.
415  4.14  0.  0.
416  4.15  0.  0.
417  4.16  0.  0.
418  4.17  0.  0.
419  4.18  0.  0.
420  4.19  0.  0.
421  4.20  0.  0.
422  4.21  0.  0.
423  4.22  0.  0.
424  4.23  0.  0.
425  4.24  0.  0.
426  4.25  0.  0.
427  4.26  0.  0.
428  4.27  0.  0.
429  4.28  0.  0.
430  4.29  0.  0.
431  4.30  0.  0.
432  4.31  0.  0.
433  4.32  0.  0.
434  4.33  0.  0.
435  4.34  0.  0.
436  4.35  0.  0.
437  4.36  0.  0.
438  4.37  0.  0.
439  4.38  0.  0.
440  4.39  0.  0.
441  4.40  0.  0.
442  4.41  0.  0.
443  4.42  0.  0.
444  4.43  0.  0.
445  4.44  0.  0.
446  4.45  0.  0.
447  4.46  0.  0.
448  4.47  0.  0.
449  4.48  0.  0.
450  4.49  0.  0.
451  4.50  0.  0.
452  4.51  0.  0.
453  4.52  0.  0.
454  4.53  0.  0.
455  4.54  0.  0.
456  4.55  0.  0.
457  4.56  0.  0.
458  4.57  0.  0.
459  4.58  0.  0.
460  4.59  0.  0.
461  4.60  0.  0.
462  4.61  0.  0.
463  4.62  0.  0.
464  4.63  0.  0.
465  4.64  0.  0.
466  4.65  0.  0.
467  4.66  0.  0.
468  4.67  0.  0.
469  4.68  0.  0.
470  4.69  0.  0.
471  4.70  0.  0.
472  4.71  0.  0.
473  4.72  0.  0.
474  4.73  0.  0.
475  4.74  0.  0.
476  4.75  0.  0.
477  4.76  0.  0.
478  4.77  0.  0.
479  4.78  0.  0.
480  4.79  0.  0.
481  4.80  0.  0.
482  4.81  0.  0.
483  4.82  0.  0.
484  4.83  0.  0.
485  4.84  0.  0.
486  4.85  0.  0.
487  4.86  0.  0.
488  4.87  0.  0.
489  4.88  0.  0.
490  4.89  0.  0.
491  4.90  0.  0.
492  4.91  0.  0.
493  4.92  0.  0.
494  4.93  0.  0.
495  4.94  0.  0.
496  4.95  0.  0.
497  4.96  0.  0.
498  4.97  0.  0.
499  4.98  0.  0.
500  4.99  0.  0.
501  5.00  0.  0.
502  5.01  0.  0.
503  5.02  0.  0.
504  5.03  0.  0.
505  5.04  0.  0.
506  5.05  0.  0.
507  5.06  0.  0.
508  5.07  0.  0.
509  5.08  0.  0.
510  5.09  0.  0.
511  5.10  0.  0.
512  5.11  0.  0.
513  5.12  0.  0.
514  5.13  0.  0.
515  5.14  0.  0.
516  5.15  0.  0.
517  5.16  0.  0.
518  5.17  0.  0.
519  5.18  0.  0.
520  5.19  0.  0.
521  5.20  0.  0.
522  5.21  0.  0.
523  5.22  0.  0.
524  5.23  0.  0.
525  5.24  0.  0.
526  5.25  0.  0.
527  5.26  0.  0.
528  5.27  0.  0.
529  5.28  0.  0.
530  5.29  0.  0.
531  5.30  0.  0.
532  5.31  0.  0.
533  5.32  0.  0.
534  5.33  0.  0.
535  5.34  0.  0.
536  5.35  0.  0.
537  5.36  0.  0.
538  5.37  0.  0.
539  5.38  0.  0.
540  5.39  0.  0.
541  5.40  0.  0.
542  5.41  0.  0.
543  5.42  0.  0.
544  5.43  0.  0.
545  5.44  0.  0.
546  5.45  0.  0.
547  5.46  0.  0.
548  5.47  0.  0.
549  5.48  0.  0.
550  5.49  0.  0.
551  5.50  0.  0.
552  5.51  0.  0.
553  5.52  0.  0.
554  5.53  0.  0.
555  5.54  0.  0.
556  5.55  0.  0.
557  5.56  0.  0.
558  5.57  0.  0.
559  5.58  0.  0.
560  5.59  0.  0.
561  5.60  0.  0.
562  5.61  0.  0.
563  5.62  0.  0.
564  5.63  0.  0.
565  5.64  0.  0.
566  5.65  0.  0.
567  5.66  0.  0.
568  5.67  0.  0.
569  5.68  0.  0.
570  5.69  0.  0.
571  5.70  0.  0.
572  5.71  0.  0.
573  5.72  0.  0.
574  5.73  0.  0.
575  5.74  0.  0.
576  5.75  0.  0.
577  5.76  0.  0.
578  5.77  0.  0.
579  5.78  0.  0.
580  5.79  0.  0.
581  5.80  0.  0.
582  5.81  0.  0.
583  5.82  0.  0.
584  5.83  0.  0.
585  5.84  0.  0.
586  5.85  0.  0.
587  5.86  0.  0.
588  5.87  0.  0.
589  5.88  0.  0.
590  5.89  0.  0.
591  5.90  0.  0.
592  5.91  0.  0.
593  5.92  0.  0.
594  5.93  0.  0.
595  5.94  0.  0.
596  5.95  0.  0.
597  5.96  0.  0.
598  5.97  0.  0.
599  5.98  0.  0.
600  5.99  0.  0.
1                         5.3398021995502E+00  5.0488998148645E-01
1  0.0000000000000E+00  2.1020864493515E-09 -7.9093323349100E-09
2  1.0000000000000E-02  7.2836422579698E-04 -9.8227056051377E-04
3  2.0000000000000E-02  2.9084420360160E-03 -3.9125064620039E-03
4  3.0000000000000E-02  6.5252633352556E-03 -8.7412588534876E-03
5  4.0000000000000E-02  1.1554125119491E-02 -1.5387036771299E-02
6  5.0000000000000E-02  1.7960958031768E-02 -2.3737677109013E-02
7  6.0000000000000E-02  2.5702831254078E-02 -3.3652231404640E-02
8  7.0000000000000E-02  3.4728587605738E-02 -4.4963338861717E-02
9  8.0000000000000E-02  4.4979598616503E-02 -5.7480047111639E-02
10  9.0000000000000E-02  5.6390627401478E-02 -7.0991034919419E-02
11  1.0000000000000E-01  6.8890785415223E-02 -8.5268184449429E-02
12  1.1000000000000E-01  8.2404567632019E-02 -1.0007044494506E-01
13  1.2000000000000E-01  9.6852949412423E-02 -1.1514792482895E-01
14  1.3000000000000E-01  1.1215452729358E-01 -1.3024614537510E-01
15  1.4000000000000E-01  1.2822668519882E-01 -1.4511038630388E-01
16  1.5000000000000E-01  1.4498676711317E-01 -1.5949005195060E-01
17  1.6000000000000E-01  1.6235323712288E-01 -1.7314298608829E-01
18  1.7000000000000E-01  1.8024680787283E-01 -1.8583966405602E-01
19  1.8000000000000E-01  1.9859151895270E-01 -1.9736719255033E-01
20  1.9000000000000E-01  2.1731574747631E-01 -2.0753305025532E-01
21  2.0000000000000E-01  2.3635313415655E-01 -2.1616850637548E-01
22  2.1000000000000E-01  2.5564340948566E-01 -2.2313165903789E-01
23  2.2000000000000E-01  2.7513310618828E-01 -2.2831004137250E-01
24  2.3000000000000E-01  2.9477614589832E-01 -2.3162274977352E-01
25  2.4000000000000E-01  3.1453428999386E-01 -2.3302205629016E-01
26  2.5000000000000E-01  3.3437744667642E-01 -2.3249447517652E-01
27  2.6000000000000E-01  3.5428382866922E-01 -2.3006126222629E-01
28  2.7000000000000E-01  3.7423995829795E-01 -2.2577833449446E-01
29  2.8000000000000E-01  3.9424051917055E-01 -2.1973560722811E-01
30  2.9000000000000E-01  4.1428805615147E-01 -2.1205575414836E-01
31  3.0000000000000E-01  4.3439252779174E-01 -2.0289240650083E-01
32  3.1000000000000E-01  4.5457071779111E-01 -1.9242781537786E-01
33  3.2000000000000E-01  4.7484551439398E-01 -1.8087001056978E-01
34  3.3000000000000E-01  4.9524506882007E-01 -1.6844949748623E-01
35  3.4000000000000E-01  5.1580184586943E-01 -1.5541554137158E-01
36  3.5000000000000E-01  5.3655158168574E-01 -1.4203209499613E-01
37  3.6000000000000E-01  5.5753216528286E-01 -1.2857343212735E-01
38  3.7000000000000E-01  5.7878246181039E-01 -1.1531955427027E-01
39  3.8000000000000E-01  6.0034109663165E-01 -1.0255144232915E-01
40  3.9000000000000E-01  6.2224522009314E-01 -9.0546227912193E-02
41  4.0000000000000E-01  6.4452927336408E-01 -7.9572360922585E-02
42  4.1000000000000E-01  6.6722377590790E-01 -6.9884850816131E-02
43  4.2000000000000E-01  6.9035415500974E-01 -6.1720658438878E-02
44  4.3000000000000E-01  7.1393963732518E-01 -5.5294313686279E-02
45  4.4000000000000E-01  7.3799222163996E-01 -5.0793831367145E-02
46  4.5000000000000E-01  7.6251575094856E-01 -4.8376993646176E-02
47  4.6000000000000E-01  7.8750510058558E-01 -4.8168062332835E-02
48  4.7000000000000E-01  8.1294549749640E-01 -5.0254978152220E-02
49  4.8000000000000E-01  8.3881198383716E-01 -5.4687097063334E-02
50  4.9000000000000E-01  8.6506903597458E-01 -6.1473505783004E-02
51  5.0000000000000E-01  8.9167034764564E-01 -7.0581950046391E-02
52  5.1000000000000E-01  9.1855878356942E-01 -8.1938399914075E-02
53  5.2000000000000E-01  9.4566650721437E-01 -9.5427266758987E-02
54  5.3000000000000E-01  9.7291528375454E-01 -1.1089227657914E-01
55  5.4000000000000E-01  1.0002169565361E+00 -1.2813799413525E-01
56  5.5000000000000E-01  1.0274740926637E+00 -1.4693198226038E-01
57  5.6000000000000E-01  1.0545807906463E+00 -1.6700757068763E-01
58  5.7000000000000E-01  1.0814236404524E+00 -1.8806719904601E-01
59  5.8000000000000E-01  1.1078828238636E+00 -2.0978628943469E-01
60  5.9000000000000E-01  1.1338333407071E+00 -2.3181759534838E-01
61  6.0000000000000E-01  1.1591463444488E+00 -2.5379596582628E-01
62  6.1000000000000E-01  1.1836905687501E+00 -2.7534345666363E-01
63  6.2000000000000E-01  1.2073338249883E+00 -2.9607471447094E-01
64  6.3000000000000E-01  1.2299445494130E+00 -3.1560255439316E-01
65  6.4000000000000E-01  1.2513933776085E+00 -3.3354364849411E-01
66  6.5000000000000E-01  1.2715547232523E+00 -3.4952423923906E-01
67  6.6000000000000E-01  1.2903083378239E+00 -3.6318579121851E-01
68  6.7000000000000E-01  1.3075408279379E+00 -3.7419049428248E-01
69  6.8000000000000E-01  1.3231471073450E+00 -3.8222653260491E-01
70  6.9000000000000E-01  1.3370317613698E+00 -3.8701303686573E-01
71  7.0000000000000E-01  1.3491103026206E+00 -3.8830464069309E-01
72  7.1000000000000E-01  1.3593102982055E+00 -3.8589556770203E-01
73  7.2000000000000E-01  1.3675723504011E+00 -3.7962318183148E-01
74  7.3000000000000E-01  1.3738509147217E+00 -3.6937094113046E-01
75  7.4000000000000E-01  1.3781149415975E+00 -3.5507070357656E-01
76  7.5000000000000E-01  1.3803483303687E+00 -3.3670434280348E-01
77  7.6000000000000E-01  1.3805501869845E+00 -3.1430464163845E-01
78  7.7000000000000E-01  1.3787348796449E+00 -2.8795544195858E-01
79  7.8000000000000E-01  1.3749318895790E+00 -2.5779104041345E-01
80  7.9000000000000E-01  1.3691854571816E+00 -2.2399483086517E-01
81  8.0000000000000E-01  1.3615540267863E+00 -1.8679720580041E-01
82  8.1000000000000E-01  1.3521094963870E+00 -1.4647274029759E-01
83  8.2000000000000E-01  1.3409362815874E+00 -1.0333669321808E-01
84  8.3000000000000E-01  1.3281302059172E+00 -5.7740870960486E-02
85  8.4000000000000E-01  1.3137972323534E+00 -1.0068909209153E-02
86  8.5000000000000E-01  1.2980520533926E+00  3.9268962535912E-02
87  8.6000000000000E-01  1.2810165592870E+00  8.9841600388871E-02
88  8.7000000000000E-01  1.2628182060515E+00  1.4120298875582E-01
89  8.8000000000000E-01  1.2435883065422E+00  1.9289855923751E-01
90  8.9000000000000E-01  1.2234602692592E+00  2.4447169366875E-01
91  9.0000000000000E-01  1.2025678105302E+00  2.9547031547576E-01
92  9.1000000000000E-01  1.1810431663545E+00  3.4545347120468E-01
93  9.2000000000000E-01  1.1590153304227E+00  3.9399780319732E-01
94  9.3000000000000E-01  1.1366083446716E+00  4.4070381499066E-01
95  9.4000000000000E-01  1.1139396681788E+00  4.8520183309999E-01
96  9.5000000000000E-01  1.0911186492534E+00  5.2715757239341E-01
97  9.6000000000000E-01  1.0682451242572E+00  5.6627721724040E-01
98  9.7000000000000E-01  1.0454081649941E+00  6.0231193695647E-01
99  9.8000000000000E-01  1.0226849944747E+00  6.3506176168776E-01
100  9.9000000000000E-01  1.0001400885136E+00  6.6437875368485E-01
101  1.0000000000000E+00  9.7782447798103E-01  6.9016941878092E-01
102  1.0100000000000E+00  9.5577526365470E-01  7.1239631367708E-01
103  1.0200000000000E+00  9.3401535253085E-01  7.3107881619989E-01
104  1.0300000000000E+00  9.1255342120528E-01  7.4629303786822E-01
105  1.0400000000000E+00  8.9138410857514E-01  7.5817087070220E-01
106  1.0500000000000E+00  8.7048843668389E-01  7.6689817305640E-01
107  1.0600000000000E+00  8.4983445508618E-01  7.7271211217616E-01
108  1.0700000000000E+00  8.2937810070602E-01  7.7589769393693E-01
109  1.0800000000000E+00  8.0906426183583E-01  7.7678352269836E-01
110  1.0900000000000E+00  7.8882803174236E-01  7.7573684613802E-01
111  1.1000000000000E+00  7.6859613434638E-01  7.7315795118271E-01
112  1.1100000000000E+00  7.4828850167284E-01  7.6947398755153E-01
113  1.1200000000000E+00  7.2781998027979E-01  7.6513230476790E-01
114  1.1300000000000E+00  7.0710214169038E-01  7.6059339670392E-01
115  1.1400000000000E+00  6.8604517002852E-01  7.5632355457555E-01
116  1.1500000000000E+00  6.6455979860420E-01  7.5278733478484E-01
117  1.1600000000000E+00  6.4255926615349E-01  7.5043995193187E-01
118  1.1700000000000E+00  6.1996126281475E-01  7.4971970968519E-01
119  1.1800000000000E+00  5.9668983573899E-01  7.5104058291594E-01
120  1.1900000000000E+00  5.7267722449224E-01  7.5478506355900E-01
121  1.2000000000000E+00  5.4786559711046E-01  7.6129738006099E-01
122  1.2100000000000E+00  5.2220865880687E-01  7.7087719603825E-01
123  1.2200000000000E+00  4.9567310690283E-01  7.8377388790880E-01
124  1.2300000000000E+00  4.6823990751378E-01  8.0018149394769E-01
125  1.2400000000000E+00  4.3990537188596E-01  8.2023441838226E-01
126  1.2500000000000E+00  4.1068201297205E-01  8.4400396408156E-01
127  1.2600000000000E+00  3.8059916584594E-01  8.7149575612993E-01
128  1.2700000000000E+00  3.4970335885195E-01  9.0264810624703E-01
129  1.2800000000000E+00  3.1805842588316E-01  9.3733135492006E-01
130  1.2900000000000E+00  2.8574535387404E-01  9.7534821429623E-01
131  1.3000000000000E+00  2.5286186340978E-01  1.0164351205860E+00
132  1.3100000000000E+00  2.1952172422871E-01  1.0602645902125E+00
133  1.3200000000000E+00  1.8585381128559E-01  1.1064485593565E+00
134  1.3300000000000E+00  1.5200091090606E-01  1.1545426720611E+00
135  1.3400000000000E+00  1.1811829030772E-01  1.2040514680095E+00
136  1.3500000000000E+00  8.4372047354511E-02  1.2544344076071E+00
137  1.3600000000000E+00  5.0937260811058E-02  1.3051126592296E+00
138  1.3700000000000E+00  1.7995964486665E-02  1.3554765617529E+00