Tb    ONCVPSP-4.0.1  r_core=   2.00838   1.60001   1.90311   1.50710
65.0000     19.0000      230112    zatom,zion,pspd
8      11   3     4   600     0    pspcod,pspxc,lmax,lloc,mmax,r2well
5.99000000  4.00000000  0.00000000    rchrg fchrg qchrg
2     2     2     2     0    nproj
1     1           extension_switch
0                         6.9601745636366E+00  7.6307333537587E-01
1  0.0000000000000E+00  7.9679762787777E-11 -2.5421625915456E-10
2  1.0000000000000E-02  4.1133914205262E-02 -3.6257297180779E-03
3  2.0000000000000E-02  8.2246690265971E-02 -7.2835228946505E-03
4  3.0000000000000E-02  1.2331701117888E-01 -1.1004863102981E-02
5  4.0000000000000E-02  1.6432320435860E-01 -1.4820080547545E-02
6  5.0000000000000E-02  2.0524306916426E-01 -1.8757791318705E-02
7  6.0000000000000E-02  2.4605371075061E-01 -2.2844355592619E-02
8  7.0000000000000E-02  2.8673138225747E-01 -2.7103360790524E-02
9  8.0000000000000E-02  3.2725133727168E-01 -3.1555135457324E-02
10  9.0000000000000E-02  3.6758769439775E-01 -3.6216299306224E-02
11  1.0000000000000E-01  4.0771331565713E-01 -4.1099354506990E-02
12  1.1000000000000E-01  4.4759970030382E-01 -4.6212322873823E-02
13  1.2000000000000E-01  4.8721689549598E-01 -5.1558433138903E-02
14  1.3000000000000E-01  5.2653342510119E-01 -5.7135861983887E-02
15  1.4000000000000E-01  5.6551623773851E-01 -6.2937531948952E-02
16  1.5000000000000E-01  6.0413067497478E-01 -6.8950968752830E-02
17  1.6000000000000E-01  6.4234046039796E-01 -7.5158219943310E-02
18  1.7000000000000E-01  6.8010771008756E-01 -8.1535836161813E-02
19  1.8000000000000E-01  7.1739296479456E-01 -8.8054915654261E-02
20  1.9000000000000E-01  7.5415524393116E-01 -9.4681211999896E-02
21  2.0000000000000E-01  7.9035212125737E-01 -1.0137530436634E-01
22  2.1000000000000E-01  8.2593982193802E-01 -1.0809282894006E-01
23  2.2000000000000E-01  8.6087334043276E-01 -1.1478476953245E-01
24  2.3000000000000E-01  8.9510657847468E-01 -1.2139780473018E-01
25  2.4000000000000E-01  9.2859250219235E-01 -1.2787470835023E-01
26  2.5000000000000E-01  9.6128331723754E-01 -1.3415479938165E-01
27  2.6000000000000E-01  9.9313066059789E-01 -1.4017443705321E-01
28  2.7000000000000E-01  1.0240858076026E+00 -1.4586755616497E-01
29  2.8000000000000E-01  1.0540998924715E+00 -1.5116623736704E-01
30  2.9000000000000E-01  1.0831241406141E+00 -1.5600130666589E-01
31  3.0000000000000E-01  1.1111101107601E+00 -1.6030295809191E-01
32  3.1000000000000E-01  1.1380099448908E+00 -1.6400139317477E-01
33  3.2000000000000E-01  1.1637766238530E+00 -1.6702747064978E-01
34  3.3000000000000E-01  1.1883642264639E+00 -1.6931335966155E-01
35  3.4000000000000E-01  1.2117281898655E+00 -1.7079318964175E-01
36  3.5000000000000E-01  1.2338255688575E+00 -1.7140369001919E-01
37  3.6000000000000E-01  1.2546152919283E+00 -1.7108481297185E-01
38  3.7000000000000E-01  1.2740584117170E+00 -1.6978033255274E-01
39  3.8000000000000E-01  1.2921183476739E+00 -1.6743841371432E-01
40  3.9000000000000E-01  1.3087611187436E+00 -1.6401214501737E-01
41  4.0000000000000E-01  1.3239555639678E+00 -1.5946002913893E-01
42  4.1000000000000E-01  1.3376735490072E+00 -1.5374642568624E-01
43  4.2000000000000E-01  1.3498901566923E+00 -1.4684194127738E-01
44  4.3000000000000E-01  1.3605838598512E+00 -1.3872376235948E-01
45  4.4000000000000E-01  1.3697366748134E+00 -1.2937592679785E-01
46  4.5000000000000E-01  1.3773342941543E+00 -1.1878953087924E-01
47  4.6000000000000E-01  1.3833661974285E+00 -1.0696286902274E-01
48  4.7000000000000E-01  1.3878257388350E+00 -9.3901504177854E-02
49  4.8000000000000E-01  1.3907102109589E+00 -7.9618267603243E-02
50  4.9000000000000E-01  1.3920208839529E+00 -6.4133187454588E-02
51  5.0000000000000E-01  1.3917630197391E+00 -4.7473346359653E-02
52  5.1000000000000E-01  1.3899458610372E+00 -2.9672668913397E-02
53  5.2000000000000E-01  1.3865825952557E+00 -1.0771640780363E-02
54  5.3000000000000E-01  1.3816902935078E+00  9.1830381639750E-03
55  5.4000000000000E-01  1.3752898252421E+00  3.0138863493992E-02
56  5.5000000000000E-01  1.3674057491993E+00  5.2037994834729E-02
57  5.6000000000000E-01  1.3580661816225E+00  7.4817778871203E-02
58  5.7000000000000E-01  1.3473026428566E+00  9.8411321604043E-02
59  5.8000000000000E-01  1.3351498836681E+00  1.2274810410579E-01
60  5.9000000000000E-01  1.3216456928026E+00  1.4775463550249E-01
61  6.0000000000000E-01  1.3068306874658E+00  1.7335513643482E-01
62  6.1000000000000E-01  1.2907480885708E+00  1.9947224584775E-01
63  6.2000000000000E-01  1.2734434827277E+00  2.2602774362317E-01
64  6.3000000000000E-01  1.2549645730723E+00  2.5294328130925E-01
65  6.4000000000000E-01  1.2353609211275E+00  2.8014111301834E-01
66  6.5000000000000E-01  1.2146836819664E+00  3.0754481846377E-01
67  6.6000000000000E-01  1.1929853350027E+00  3.3508001008734E-01
68  6.7000000000000E-01  1.1703194127653E+00  3.6267501629549E-01
69  6.8000000000000E-01  1.1467402300236E+00  3.9026153297118E-01
70  6.9000000000000E-01  1.1223026156177E+00  4.1777523566310E-01
71  7.0000000000000E-01  1.0970616493109E+00  4.4515634516903E-01
72  7.1000000000000E-01  1.0710724059237E+00  4.7235013962633E-01
73  7.2000000000000E-01  1.0443897089309E+00  4.9930740669470E-01
74  7.3000000000000E-01  1.0170678955984E+00  5.2598482996168E-01
75  7.4000000000000E-01  9.8916059562187E-01  5.5234530431369E-01
76  7.5000000000000E-01  9.6072052508509E-01  5.7835817569121E-01
77  7.6000000000000E-01  9.3179929740272E-01  6.0399940137692E-01
78  7.7000000000000E-01  9.0244725274061E-01  6.2925162774676E-01
79  7.8000000000000E-01  8.7271330722042E-01  6.5410418323506E-01
80  7.9000000000000E-01  8.4264482301897E-01  6.7855298512147E-01
81  8.0000000000000E-01  8.1228750026520E-01  7.0260035962892E-01
82  8.1000000000000E-01  7.8168529142296E-01  7.2625477572097E-01
83  8.2000000000000E-01  7.5088033862656E-01  7.4953049389457E-01
84  8.3000000000000E-01  7.1991293421202E-01  7.7244713217209E-01
85  8.4000000000000E-01  6.8882150446032E-01  7.9502915239559E-01
86  8.5000000000000E-01  6.5764261634375E-01  8.1730527080788E-01
87  8.6000000000000E-01  6.2641100684313E-01  8.3930779776188E-01
88  8.7000000000000E-01  5.9515963418517E-01  8.6107191222175E-01
89  8.8000000000000E-01  5.6391975013684E-01  8.8263487750235E-01
90  8.9000000000000E-01  5.3272099228934E-01  9.0403520542642E-01
91  9.0000000000000E-01  5.0159149506966E-01  9.2531177675876E-01
92  9.1000000000000E-01  4.7055801803364E-01  9.4650292639549E-01
93  9.2000000000000E-01  4.3964608982351E-01  9.6764550234008E-01
94  9.3000000000000E-01  4.0888016601397E-01  9.8877390798132E-01
95  9.4000000000000E-01  3.7828379892733E-01  1.0099191375987E+00
96  9.5000000000000E-01  3.4787981736852E-01  1.0311078153545E+00
97  9.6000000000000E-01  3.1769051411690E-01  1.0523612482867E+00
98  9.7000000000000E-01  2.8773783891304E-01  1.0736945039939E+00
99  9.8000000000000E-01  2.5804359459602E-01  1.0951155237966E+00
100  9.9000000000000E-01  2.2862963397926E-01  1.1166242821763E+00
101  1.0000000000000E+00  1.9951805500121E-01  1.1382120032273E+00
102  1.0100000000000E+00  1.7073139165033E-01  1.1598604447162E+00
103  1.0200000000000E+00  1.4229279814204E-01  1.1815412601195E+00
104  1.0300000000000E+00  1.1422622381763E-01  1.2032154487211E+00
105  1.0400000000000E+00  8.6556576241079E-02  1.2248329034793E+00
106  1.0500000000000E+00  5.9309869990000E-02  1.2463320659375E+00
107  1.0600000000000E+00  3.2513358669140E-02  1.2676396969472E+00
108  1.0700000000000E+00  6.1956477209330E-03  1.2886707713967E+00
109  1.0800000000000E+00 -1.9613214334320E-02  1.3093285045045E+00
110  1.0900000000000E+00 -4.4881668524727E-02  1.3295045165307E+00
111  1.1000000000000E+00 -6.9576604131438E-02  1.3490791419968E+00
112  1.1100000000000E+00 -9.3663345585400E-02  1.3679218886711E+00
113  1.1200000000000E+00 -1.1710566955744E-01  1.3858920506817E+00
114  1.1300000000000E+00 -1.3986585411396E-01  1.4028394791502E+00
115  1.1400000000000E+00 -1.6190476166461E-01  1.4186055127017E+00
116  1.1500000000000E+00 -1.8318195726168E-01  1.4330240690846E+00
117  1.1600000000000E+00 -2.0365586362307E-01  1.4459228979299E+00
118  1.1700000000000E+00 -2.2328395403601E-01  1.4571249933781E+00
119  1.1800000000000E+00 -2.4202298405648E-01  1.4664501638944E+00
120  1.1900000000000E+00 -2.5982926264241E-01  1.4737167550676E+00
121  1.2000000000000E+00 -2.7665896304464E-01  1.4787435195314E+00
122  1.2100000000000E+00 -2.9246847342345E-01  1.4813516263406E+00
123  1.2200000000000E+00 -3.0721478675056E-01  1.4813668001585E+00
124  1.2300000000000E+00 -3.2085592909782E-01  1.4786215784589E+00
125  1.2400000000000E+00 -3.3335142488894E-01  1.4729576725730E+00
126  1.2500000000000E+00 -3.4466279709853E-01  1.4642284158109E+00
127  1.2600000000000E+00 -3.5475409971583E-01  1.4523012790431E+00
128  1.2700000000000E+00 -3.6359247903246E-01  1.4370604309698E+00
129  1.2800000000000E+00 -3.7114875946688E-01  1.4184093168632E+00
130  1.2900000000000E+00 -3.7739804868825E-01  1.3962732257771E+00
131  1.3000000000000E+00 -3.8232035573428E-01  1.3706018120346E+00
132  1.3100000000000E+00 -3.8590121463144E-01  1.3413715322268E+00
133  1.3200000000000E+00 -3.8813230471101E-01  1.3085879539562E+00
134  1.3300000000000E+00 -3.8901205734311E-01  1.2722878870276E+00
135  1.3400000000000E+00 -3.8854623719761E-01  1.2325412817903E+00
136  1.3500000000000E+00 -3.8674848435628E-01  1.1894528327639E+00
137  1.3600000000000E+00 -3.8364080164160E-01  1.1431632185192E+00
138  1.3700000000000E+00 -3.7925396937255E-01  1.0938499009660E+00
139  1.3800000000000E+00 -3.7362786740969E-01  1.0417273987354E+00
140  1.3900000000000E+00 -3.6681168178368E-01  9.8704694012292E-01
141  1.4000000000000E+00 -3.5886397041485E-01  9.3009539111204E-01
142  1.4100000000000E+00 -3.4985255938581E-01  8.7119334315369E-01
143  1.4200000000000E+00 -3.3985423795032E-01  8.1069223374839E-01
144  1.4300000000000E+00 -3.2895421689794E-01  7.4897036026533E-01
145  1.4400000000000E+00 -3.1724531105031E-01  6.8642763385880E-01
146  1.4500000000000E+00 -3.0482680253021E-01  6.2347890576507E-01
147  1.4600000000000E+00 -2.9180293696451E-01  5.6054568248341E-01
148  1.4700000000000E+00 -2.7828099999819E-01  4.9804602951269E-01
149  1.4800000000000E+00 -2.6436891633728E-01  4.3638244516697E-01
150  1.4900000000000E+00 -2.5017230569141E-01  3.7592745351693E-01
151  1.5000000000000E+00 -2.3579096076989E-01  3.1700685473552E-01
152  1.5100000000000E+00 -2.2131447464245E-01  2.5987921023652E-01
153  1.5200000000000E+00 -2.0681972985047E-01  2.0472738775035E-01
154  1.5300000000000E+00 -1.9237677310514E-01  1.5169794076316E-01
155  1.5400000000000E+00 -1.7805350815450E-01  1.0093041279109E-01
156  1.5500000000000E+00 -1.6391529955846E-01  5.2555958193132E-02
157  1.5600000000000E+00 -1.5002465805457E-01  6.6964372295759E-03
158  1.5700000000000E+00 -1.3644089637192E-01 -3.6536714439092E-02
159  1.5800000000000E+00 -1.2321980328457E-01 -7.7043555555693E-02
160  1.5900000000000E+00 -1.1041334105413E-01 -1.1473662648090E-01
161  1.6000000000000E+00 -9.8069367977222E-02 -1.4954185048883E-01
162  1.6100000000000E+00 -8.6231388768788E-02 -1.8139933934618E-01
163  1.6200000000000E+00 -7.4938335252843E-02 -2.1026409436588E-01
164  1.6300000000000E+00 -6.4224379584327E-02 -2.3610659499304E-01
165  1.6400000000000E+00 -5.4118781987520E-02 -2.5891326778804E-01
166  1.6500000000000E+00 -4.4645775391469E-02 -2.7868682624181E-01
167  1.6600000000000E+00 -3.5824485597091E-02 -2.9544649025310E-01
168  1.6700000000000E+00 -2.7668893161939E-02 -3.0922805562506E-01
169  1.6800000000000E+00 -2.0187832102595E-02 -3.2008383919302E-01
170  1.6900000000000E+00 -1.3385029502427E-02 -3.2808247949120E-01
171  1.7000000000000E+00 -7.2591845718799E-03 -3.3330860019995E-01
172  1.7100000000000E+00 -1.8040871036867E-03 -3.3586233607109E-01
173  1.7200000000000E+00  2.9912254189912E-03 -3.3585872394725E-01
174  1.7300000000000E+00  7.1422731165543E-03 -3.3342696254966E-01
175  1.7400000000000E+00  1.0668902837347E-02 -3.2870954607173E-01
176  1.7500000000000E+00  1.3595022874700E-02 -3.2186127780205E-01
177  1.7600000000000E+00  1.5948305336153E-02 -3.1304817103354E-01
178  1.7700000000000E+00  1.7759858575734E-02 -3.0244624582016E-01
179  1.7800000000000E+00  1.9063872339242E-02 -2.9024023094657E-01
180  1.7900000000000E+00  1.9897238585152E-02 -2.7662218164404E-01
181  1.8000000000000E+00  2.0299151136299E-02 -2.6179002423041E-01
182  1.8100000000000E+00  2.0310687554662E-02 -2.4594603972792E-01
183  1.8200000000000E+00  1.9974376813690E-02 -2.2929529916670E-01
184  1.8300000000000E+00  1.9333756472319E-02 -2.1204406373071E-01
185  1.8400000000000E+00  1.8432923175992E-02 -1.9439816334583E-01
186  1.8500000000000E+00  1.7316080403127E-02 -1.7656136765635E-01
187  1.8600000000000E+00  1.6027087413573E-02 -1.5873376346839E-01
188  1.8700000000000E+00  1.4609013632756E-02 -1.4111015343363E-01
189  1.8800000000000E+00  1.3103700390434E-02 -1.2387848436615E-01
190  1.8900000000000E+00  1.1551335541176E-02 -1.0721832431957E-01
191  1.9000000000000E+00  9.9900696054772E-03 -9.1299467815820E-02
192  1.9100000000000E+00  8.4553721426685E-03 -7.6279814567860E-02
193  1.9200000000000E+00  6.9780357180838E-03 -6.2299150690550E-02
194  1.9300000000000E+00  5.5871626374557E-03 -4.9487761388932E-02
195  1.9400000000000E+00  4.3104244594091E-03 -3.7967136984810E-02
196  1.9500000000000E+00  3.1712895688913E-03 -2.7841691722288E-02
197  1.9600000000000E+00  2.1891541604048E-03 -1.9198968119419E-02
198  1.9700000000000E+00  1.3790931981002E-03 -1.2108771764637E-02
199  1.9800000000000E+00  7.5198645926469E-04 -6.6251785356877E-03
200  1.9900000000000E+00  3.1127011550370E-04 -2.7576274610380E-03
201  2.0000000000000E+00  6.8356555238729E-05 -6.1061799696730E-04
202  2.0100000000000E+00 -3.9387784195564E-06  3.5416541494210E-05
203  2.0200000000000E+00 -4.6923922912153E-07  4.2394353153582E-06
204  2.03  0. -0.
205  2.04 -0.  0.
206  2.05 -0. -0.
207  2.06  0.  0.
208  2.07  0.  0.
209  2.08  0.  0.
210  2.09  0.  0.
211  2.10  0.  0.
212  2.11  0.  0.
213  2.12  0.  0.
214  2.13  0.  0.
215  2.14  0.  0.
216  2.15  0.  0.
217  2.16  0.  0.
218  2.17  0.  0.
219  2.18  0.  0.
220  2.19  0.  0.
221  2.20  0.  0.
222  2.21  0.  0.
223  2.22  0.  0.
224  2.23  0.  0.
225  2.24  0.  0.
226  2.25  0.  0.
227  2.26  0.  0.
228  2.27  0.  0.
229  2.28  0.  0.
230  2.29  0.  0.
231  2.30  0.  0.
232  2.31  0.  0.
233  2.32  0.  0.
234  2.33  0.  0.
235  2.34  0.  0.
236  2.35  0.  0.
237  2.36  0.  0.
238  2.37  0.  0.
239  2.38  0.  0.
240  2.39  0.  0.
241  2.40  0.  0.
242  2.41  0.  0.
243  2.42  0.  0.
244  2.43  0.  0.
245  2.44  0.  0.
246  2.45  0.  0.
247  2.46  0.  0.
248  2.47  0.  0.
249  2.48  0.  0.
250  2.49  0.  0.
251  2.50  0.  0.
252  2.51  0.  0.
253  2.52  0.  0.
254  2.53  0.  0.
255  2.54  0.  0.
256  2.55  0.  0.
257  2.56  0.  0.
258  2.57  0.  0.
259  2.58  0.  0.
260  2.59  0.  0.
261  2.60  0.  0.
262  2.61  0.  0.
263  2.62  0.  0.
264  2.63  0.  0.
265  2.64  0.  0.
266  2.65  0.  0.
267  2.66  0.  0.
268  2.67  0.  0.
269  2.68  0.  0.
270  2.69  0.  0.
271  2.70  0.  0.
272  2.71  0.  0.
273  2.72  0.  0.
274  2.73  0.  0.
275  2.74  0.  0.
276  2.75  0.  0.
277  2.76  0.  0.
278  2.77  0.  0.
279  2.78  0.  0.
280  2.79  0.  0.
281  2.80  0.  0.
282  2.81  0.  0.
283  2.82  0.  0.
284  2.83  0.  0.
285  2.84  0.  0.
286  2.85  0.  0.
287  2.86  0.  0.
288  2.87  0.  0.
289  2.88  0.  0.
290  2.89  0.  0.
291  2.90  0.  0.
292  2.91  0.  0.
293  2.92  0.  0.
294  2.93  0.  0.
295  2.94  0.  0.
296  2.95  0.  0.
297  2.96  0.  0.
298  2.97  0.  0.
299  2.98  0.  0.
300  2.99  0.  0.
301  3.00  0.  0.
302  3.01  0.  0.
303  3.02  0.  0.
304  3.03  0.  0.
305  3.04  0.  0.
306  3.05  0.  0.
307  3.06  0.  0.
308  3.07  0.  0.
309  3.08  0.  0.
310  3.09  0.  0.
311  3.10  0.  0.
312  3.11  0.  0.
313  3.12  0.  0.
314  3.13  0.  0.
315  3.14  0.  0.
316  3.15  0.  0.
317  3.16  0.  0.
318  3.17  0.  0.
319  3.18  0.  0.
320  3.19  0.  0.
321  3.20  0.  0.
322  3.21  0.  0.
323  3.22  0.  0.
324  3.23  0.  0.
325  3.24  0.  0.
326  3.25  0.  0.
327  3.26  0.  0.
328  3.27  0.  0.
329  3.28  0.  0.
330  3.29  0.  0.
331  3.30  0.  0.
332  3.31  0.  0.
333  3.32  0.  0.
334  3.33  0.  0.
335  3.34  0.  0.
336  3.35  0.  0.
337  3.36  0.  0.
338  3.37  0.  0.
339  3.38  0.  0.
340  3.39  0.  0.
341  3.40  0.  0.
342  3.41  0.  0.
343  3.42  0.  0.
344  3.43  0.  0.
345  3.44  0.  0.
346  3.45  0.  0.
347  3.46  0.  0.
348  3.47  0.  0.
349  3.48  0.  0.
350  3.49  0.  0.
351  3.50  0.  0.
352  3.51  0.  0.
353  3.52  0.  0.
354  3.53  0.  0.
355  3.54  0.  0.
356  3.55  0.  0.
357  3.56  0.  0.
358  3.57  0.  0.
359  3.58  0.  0.
360  3.59  0.  0.
361  3.60  0.  0.
362  3.61  0.  0.
363  3.62  0.  0.
364  3.63  0.  0.
365  3.64  0.  0.
366  3.65  0.  0.
367  3.66  0.  0.
368  3.67  0.  0.
369  3.68  0.  0.
370  3.69  0.  0.
371  3.70  0.  0.
372  3.71  0.  0.
373  3.72  0.  0.
374  3.73  0.  0.
375  3.74  0.  0.
376  3.75  0.  0.
377  3.76  0.  0.
378  3.77  0.  0.
379  3.78  0.  0.
380  3.79  0.  0.
381  3.80  0.  0.
382  3.81  0.  0.
383  3.82  0.  0.
384  3.83  0.  0.
385  3.84  0.  0.
386  3.85  0.  0.
387  3.86  0.  0.
388  3.87  0.  0.
389  3.88  0.  0.
390  3.89  0.  0.
391  3.90  0.  0.
392  3.91  0.  0.
393  3.92  0.  0.
394  3.93  0.  0.
395  3.94  0.  0.
396  3.95  0.  0.
397  3.96  0.  0.
398  3.97  0.  0.
399  3.98  0.  0.
400  3.99  0.  0.
401  4.00  0.  0.
402  4.01  0.  0.
403  4.02  0.  0.
404  4.03  0.  0.
405  4.04  0.  0.
406  4.05  0.  0.
407  4.06  0.  0.
408  4.07  0.  0.
409  4.08  0.  0.
410  4.09  0.  0.
411  4.10  0.  0.
412  4.11  0.  0.
413  4.12  0.  0.
414  4.13  0.  0.
415  4.14  0.  0.
416  4.15  0.  0.
417  4.16  0.  0.
418  4.17  0.  0.
419  4.18  0.  0.
420  4.19  0.  0.
421  4.20  0.  0.
422  4.21  0.  0.
423  4.22  0.  0.
424  4.23  0.  0.
425  4.24  0.  0.
426  4.25  0.  0.
427  4.26  0.  0.
428  4.27  0.  0.
429  4.28  0.  0.
430  4.29  0.  0.
431  4.30  0.  0.
432  4.31  0.  0.
433  4.32  0.  0.
434  4.33  0.  0.
435  4.34  0.  0.
436  4.35  0.  0.
437  4.36  0.  0.
438  4.37  0.  0.
439  4.38  0.  0.
440  4.39  0.  0.
441  4.40  0.  0.
442  4.41  0.  0.
443  4.42  0.  0.
444  4.43  0.  0.
445  4.44  0.  0.
446  4.45  0.  0.
447  4.46  0.  0.
448  4.47  0.  0.
449  4.48  0.  0.
450  4.49  0.  0.
451  4.50  0.  0.
452  4.51  0.  0.
453  4.52  0.  0.
454  4.53  0.  0.
455  4.54  0.  0.
456  4.55  0.  0.
457  4.56  0.  0.
458  4.57  0.  0.
459  4.58  0.  0.
460  4.59  0.  0.
461  4.60  0.  0.
462  4.61  0.  0.
463  4.62  0.  0.
464  4.63  0.  0.
465  4.64  0.  0.
466  4.65  0.  0.
467  4.66  0.  0.
468  4.67  0.  0.
469  4.68  0.  0.
470  4.69  0.  0.
471  4.70  0.  0.
472  4.71  0.  0.
473  4.72  0.  0.
474  4.73  0.  0.
475  4.74  0.  0.
476  4.75  0.  0.
477  4.76  0.  0.
478  4.77  0.  0.
479  4.78  0.  0.
480  4.79  0.  0.
481  4.80  0.  0.
482  4.81  0.  0.
483  4.82  0.  0.
484  4.83  0.  0.
485  4.84  0.  0.
486  4.85  0.  0.
487  4.86  0.  0.
488  4.87  0.  0.
489  4.88  0.  0.
490  4.89  0.  0.
491  4.90  0.  0.
492  4.91  0.  0.
493  4.92  0.  0.
494  4.93  0.  0.
495  4.94  0.  0.
496  4.95  0.  0.
497  4.96  0.  0.
498  4.97  0.  0.
499  4.98  0.  0.
500  4.99  0.  0.
501  5.00  0.  0.
502  5.01  0.  0.
503  5.02  0.  0.
504  5.03  0.  0.
505  5.04  0.  0.
506  5.05  0.  0.
507  5.06  0.  0.
508  5.07  0.  0.
509  5.08  0.  0.
510  5.09  0.  0.
511  5.10  0.  0.
512  5.11  0.  0.
513  5.12  0.  0.
514  5.13  0.  0.
515  5.14  0.  0.
516  5.15  0.  0.
517  5.16  0.  0.
518  5.17  0.  0.
519  5.18  0.  0.
520  5.19  0.  0.
521  5.20  0.  0.
522  5.21  0.  0.
523  5.22  0.  0.
524  5.23  0.  0.
525  5.24  0.  0.
526  5.25  0.  0.
527  5.26  0.  0.
528  5.27  0.  0.
529  5.28  0.  0.
530  5.29  0.  0.
531  5.30  0.  0.
532  5.31  0.  0.
533  5.32  0.  0.
534  5.33  0.  0.
535  5.34  0.  0.
536  5.35  0.  0.
537  5.36  0.  0.
538  5.37  0.  0.
539  5.38  0.  0.
540  5.39  0.  0.
541  5.40  0.  0.
542  5.41  0.  0.
543  5.42  0.  0.
544  5.43  0.  0.
545  5.44  0.  0.
546  5.45  0.  0.
547  5.46  0.  0.
548  5.47  0.  0.
549  5.48  0.  0.
550  5.49  0.  0.
551  5.50  0.  0.
552  5.51  0.  0.
553  5.52  0.  0.
554  5.53  0.  0.
555  5.54  0.  0.
556  5.55  0.  0.
557  5.56  0.  0.
558  5.57  0.  0.
559  5.58  0.  0.
560  5.59  0.  0.
561  5.60  0.  0.
562  5.61  0.  0.
563  5.62  0.  0.
564  5.63  0.  0.
565  5.64  0.  0.
566  5.65  0.  0.
567  5.66  0.  0.
568  5.67  0.  0.
569  5.68  0.  0.
570  5.69  0.  0.
571  5.70  0.  0.
572  5.71  0.  0.
573  5.72  0.  0.
574  5.73  0.  0.
575  5.74  0.  0.
576  5.75  0.  0.
577  5.76  0.  0.
578  5.77  0.  0.
579  5.78  0.  0.
580  5.79  0.  0.
581  5.80  0.  0.
582  5.81  0.  0.
583  5.82  0.  0.
584  5.83  0.  0.
585  5.84  0.  0.
586  5.85  0.  0.
587  5.86  0.  0.
588  5.87  0.  0.
589  5.88  0.  0.
590  5.89  0.  0.
591  5.90  0.  0.
592  5.91  0.  0.
593  5.92  0.  0.
594  5.93  0.  0.
595  5.94  0.  0.
596  5.95  0.  0.
597  5.96  0.  0.
598  5.97  0.  0.
599  5.98  0.  0.
600  5.99  0.  0.
1                         5.6909749609868E+00  3.4179070097181E-01
1  0.0000000000000E+00  4.6327318647954E-09 -3.0000045475598E-08
2  1.0000000000000E-02  1.3134460954582E-03 -2.9046764503822E-03
3  2.0000000000000E-02  5.2438103364849E-03 -1.1564704354523E-02
4  3.0000000000000E-02  1.1761320919621E-02 -2.5819052828970E-02
5  4.0000000000000E-02  2.0816856578550E-02 -4.5402564502000E-02
6  5.0000000000000E-02  3.2342684784027E-02 -6.9950735989673E-02
7  6.0000000000000E-02  4.6253476582080E-02 -9.9006290321967E-02
8  7.0000000000000E-02  6.2447579838239E-02 -1.3202742364873E-01
9  8.0000000000000E-02  8.0808528022777E-02 -1.6839757855516E-01
10  9.0000000000000E-02  1.0120675745721E-01 -2.0743656894360E-01
11  1.0000000000000E-01  1.2350150222269E-01 -2.4841285717963E-01
12  1.1000000000000E-01  1.4754283277440E-01 -2.9055676348842E-01
13  1.2000000000000E-01  1.7317380177118E-01 -3.3307437079214E-01
14  1.3000000000000E-01  2.0023265876217E-01 -3.7516187559984E-01
15  1.4000000000000E-01  2.2855509420734E-01 -4.1602012742535E-01
16  1.5000000000000E-01  2.5797647286838E-01 -4.5486909566141E-01
17  1.6000000000000E-01  2.8833401689800E-01 -4.9096200394638E-01
18  1.7000000000000E-01  3.1946889997569E-01 -5.2359887780556E-01
19  1.8000000000000E-01  3.5122821556751E-01 -5.5213926163409E-01
20  1.9000000000000E-01  3.8346678479566E-01 -5.7601387573163E-01
21  2.0000000000000E-01  4.1604877244679E-01 -5.9473500284348E-01
22  2.1000000000000E-01  4.4884908327159E-01 -6.0790541617838E-01
23  2.2000000000000E-01  4.8175451486514E-01 -6.1522568676175E-01
24  2.3000000000000E-01  5.1466464799418E-01 -6.1649973678575E-01
25  2.4000000000000E-01  5.4749246016829E-01 -6.1163853682642E-01
26  2.5000000000000E-01  5.8016465344896E-01 -6.0066187785672E-01
27  2.6000000000000E-01  6.1262169285660E-01 -5.8369818330781E-01
28  2.7000000000000E-01  6.4481755717393E-01 -5.6098236140905E-01
29  2.8000000000000E-01  6.7671920935346E-01 -5.3285173304637E-01
30  2.9000000000000E-01  7.0830579901847E-01 -4.9974010479690E-01
31  3.0000000000000E-01  7.3956761460286E-01 -4.6217009001060E-01
32  3.1000000000000E-01  7.7050480741206E-01 -4.2074381222398E-01
33  3.2000000000000E-01  8.0112591421698E-01 -3.7613215424529E-01
34  3.3000000000000E-01  8.3144620883470E-01 -3.2906274242541E-01
35  3.4000000000000E-01  8.6148591643215E-01 -2.8030687845274E-01
36  3.5000000000000E-01  8.9126832694891E-01 -2.3066565007492E-01
37  3.6000000000000E-01  9.2081784602397E-01 -1.8095546711053E-01
38  3.7000000000000E-01  9.5015802308843E-01 -1.3199327969876E-01
39  3.8000000000000E-01  9.7930959682716E-01 -8.4581741751440E-02
40  3.9000000000000E-01  1.0082885980059E+00 -3.9494583907465E-02
41  4.0000000000000E-01  1.0371045487056E+00  2.5375430840034E-03
42  4.1000000000000E-01  1.0657587953226E+00  4.0840501652957E-02
43  4.2000000000000E-01  1.0942430103035E+00  7.4809137014173E-02
44  4.3000000000000E-01  1.1225378945386E+00  1.0391855957135E-01
45  4.4000000000000E-01  1.1506121086824E+00  1.2773403743833E-01
46  4.5000000000000E-01  1.1784214574751E+00  1.4591932086254E-01
47  4.6000000000000E-01  1.2059083464810E+00  1.5824324799886E-01
48  4.7000000000000E-01  1.2330015256172E+00  1.6458451184685E-01
49  4.8000000000000E-01  1.2596161285195E+00  1.6493450069421E-01
50  4.9000000000000E-01  1.2856540112717E+00  1.5939815851908E-01
51  5.0000000000000E-01  1.3110043884132E+00  1.4819284688807E-01
52  5.1000000000000E-01  1.3355447585461E+00  1.3164522531465E-01
53  5.2000000000000E-01  1.3591421063790E+00  1.1018620218204E-01
54  5.3000000000000E-01  1.3816543627874E+00  8.4344042554303E-02
55  5.4000000000000E-01  1.4029320995204E+00  5.4735751885604E-02
56  5.5000000000000E-01  1.4228204306527E+00  2.2056885204046E-02
57  5.6000000000000E-01  1.4411610888310E+00 -1.2930040756785E-02
58  5.7000000000000E-01  1.4577946408975E+00 -4.9408330278573E-02
59  5.8000000000000E-01  1.4725628046325E+00 -8.6520862920572E-02
60  5.9000000000000E-01  1.4853108262154E+00 -1.2338457889572E-01
61  6.0000000000000E-01  1.4958898765879E+00 -1.5910544231852E-01
62  6.1000000000000E-01  1.5041594242543E+00 -1.9279362079930E-01
63  6.2000000000000E-01  1.5099895421754E+00 -2.2357861625681E-01
64  6.3000000000000E-01  1.5132631073142E+00 -2.5062408295989E-01
65  6.4000000000000E-01  1.5138778530510E+00 -2.7314207466764E-01
66  6.5000000000000E-01  1.5117482370843E+00 -2.9040647320711E-01
67  6.6000000000000E-01  1.5068070905135E+00 -3.0176536571507E-01
68  6.7000000000000E-01  1.4990070175283E+00 -3.0665215680275E-01
69  6.8000000000000E-01  1.4883215194157E+00 -3.0459522473364E-01
70  6.9000000000000E-01  1.4747458213805E+00 -2.9522595691126E-01
71  7.0000000000000E-01  1.4582973858621E+00 -2.7828502908738E-01
72  7.1000000000000E-01  1.4390161015253E+00 -2.5362682417652E-01
73  7.2000000000000E-01  1.4169641428091E+00 -2.2122191984023E-01
74  7.3000000000000E-01  1.3922255007265E+00 -1.8115760846351E-01
75  7.4000000000000E-01  1.3649051914135E+00 -1.3363644816922E-01
76  7.5000000000000E-01  1.3351281546191E+00 -7.8972878460421E-02
77  7.6000000000000E-01  1.3030378598132E+00 -1.7587968311720E-02
78  7.7000000000000E-01  1.2687946427441E+00  4.9997602571843E-02
79  7.8000000000000E-01  1.2325738000346E+00  1.2317219764076E-01
80  7.9000000000000E-01  1.1945634736507E+00  2.0124335236617E-01
81  8.0000000000000E-01  1.1549623607476E+00  2.8344919243899E-01
82  8.1000000000000E-01  1.1139772874224E+00  3.6897093363651E-01
83  8.2000000000000E-01  1.0718206872195E+00  4.5694623751431E-01
84  8.3000000000000E-01  1.0287080268108E+00  5.4648318307341E-01
85  8.4000000000000E-01  9.8485522207209E-01  6.3667460495035E-01
86  8.5000000000000E-01  9.4047608778589E-01  7.2661254364179E-01
87  8.6000000000000E-01  8.9577986342717E-01  8.1540255287863E-01
88  8.7000000000000E-01  8.5096885593658E-01  9.0217761349462E-01
89  8.8000000000000E-01  8.0623623809555E-01  9.8611141189271E-01
90  8.9000000000000E-01  7.6176403812749E-01  1.0664307543182E+00
91  9.0000000000000E-01  7.1772135251780E-01  1.1424269053382E+00
92  9.1000000000000E-01  6.7426280984201E-01  1.2134656598675E+00
93  9.2000000000000E-01  6.3152730869512E-01  1.2789959823626E+00
94  9.3000000000000E-01  5.8963704771454E-01  1.3385570739765E+00
95  9.4000000000000E-01  5.4869686028095E-01  1.3917837579909E+00
96  9.5000000000000E-01  5.0879386086673E-01  1.4384101051888E+00
97  9.6000000000000E-01  4.6999740428510E-01  1.4782712533922E+00
98  9.7000000000000E-01  4.3235935338346E-01  1.5113034085716E+00
99  9.8000000000000E-01  3.9591464512374E-01  1.5375420481224E+00
100  9.9000000000000E-01  3.6068213960855E-01  1.5571183794957E+00
101  1.0000000000000E+00  3.2666573153958E-01  1.5702541387636E+00
102  1.0100000000000E+00  2.9385569893079E-01  1.5772548433305E+00
103  1.0200000000000E+00  2.6223025972080E-01  1.5785016403643E+00
104  1.0300000000000E+00  2.3175730331786E-01  1.5744419171106E+00
105  1.0400000000000E+00  2.0239626112659E-01  1.5655788606399E+00
106  1.0500000000000E+00  1.7410007779701E-01  1.5524601724481E+00
107  1.0600000000000E+00  1.4681724334560E-01  1.5356661573350E+00
108  1.0700000000000E+00  1.2049384544500E-01  1.5157974159390E+00
109  1.0800000000000E+00  9.5075601075225E-02  1.4934623760765E+00
110  1.0900000000000E+00  7.0509827369062E-02  1.4692648995307E+00
111  1.1000000000000E+00  4.6747312850599E-02  1.4437921982049E+00
112  1.1100000000000E+00  2.3744052327036E-02  1.4176032866656E+00
113  1.1200000000000E+00  1.4628114007216E-03  1.3912181872633E+00
114  1.1300000000000E+00 -2.0125510121161E-02  1.3651080893838E+00
115  1.1400000000000E+00 -4.1040742818443E-02  1.3396866463949E+00
116  1.1500000000000E+00 -6.1292562852538E-02  1.3153025726592E+00
117  1.1600000000000E+00 -8.0879875718836E-02  1.2922336792383E+00
118  1.1700000000000E+00 -9.9790481555286E-02  1.2706824607798E+00
119  1.1800000000000E+00 -1.1800102987465E-01  1.2507733182818E+00
120  1.1900000000000E+00 -1.3547726633896E-01  1.2325514732498E+00
121  1.2000000000000E+00 -1.5217456893207E-01  1.2159835987704E+00
122  1.2100000000000E+00 -1.6803876571469E-01  1.2009601628003E+00
123  1.2200000000000E+00 -1.8300722129847E-01  1.1872994486707E+00
124  1.2300000000000E+00 -1.9701017440704E-01  1.1747531883568E+00
125  1.2400000000000E+00 -2.0997230438654E-01  1.1630137153314E+00
126  1.2500000000000E+00 -2.2181450041037E-01  1.1517225165747E+00
127  1.2600000000000E+00 -2.3245580342250E-01  1.1404800377511E+00
128  1.2700000000000E+00 -2.4181548759012E-01  1.1288565717180E+00
129  1.2800000000000E+00 -2.4981524526689E-01  1.1164040389671E+00
130  1.2900000000000E+00 -2.5638143717306E-01  1.1026684491514E+00
131  1.3000000000000E+00 -2.6144736768615E-01  1.0872028155856E+00
132  1.3100000000000E+00 -2.6495554380469E-01  1.0695802796545E+00
133  1.3200000000000E+00 -2.6685987545057E-01  1.0494071891878E+00
134  1.3300000000000E+00 -2.6712777427559E-01  1.0263358638400E+00