Tb    ONCVPSP-4.0.1  r_core=   2.00838   1.60001   1.90311   1.50710
65.0000     19.0000      241101    zatom,zion,pspd
8      11   3     4   600     0    pspcod,pspxc,lmax,lloc,mmax,r2well
5.99000000  4.00000000  0.00000000    rchrg fchrg qchrg
2     2     2     2     0    nproj
1     1           extension_switch
0                         6.9361699152480E+00  7.4727400855063E-01
1  0.0000000000000E+00  7.8493933575174E-11 -2.5169111239620E-10
2  1.0000000000000E-02  4.1144895001484E-02 -3.8668290533660E-03
3  2.0000000000000E-02  8.2268431860276E-02 -7.7646180446724E-03
4  3.0000000000000E-02  1.2334907633933E-01 -1.1723755323323E-02
5  4.0000000000000E-02  1.6436494411849E-01 -1.5773492391126E-02
6  5.0000000000000E-02  2.0529363099681E-01 -1.9941391237746E-02
7  6.0000000000000E-02  2.4611204933158E-01 -2.4252790407408E-02
8  7.0000000000000E-02  2.8679627269997E-01 -2.8730295742697E-02
9  8.0000000000000E-02  3.2732139069100E-01 -3.3393301499625E-02
10  9.0000000000000E-02  3.6766137563847E-01 -3.8257547218114E-02
11  1.0000000000000E-01  4.0778896299151E-01 -4.3334715366555E-02
12  1.1000000000000E-01  4.4767554688875E-01 -4.8632074361843E-02
13  1.2000000000000E-01  4.8729109235638E-01 -5.4152171101090E-02
14  1.3000000000000E-01  5.2660406539080E-01 -5.9892576632612E-02
15  1.4000000000000E-01  5.6558138201450E-01 -6.5845688046891E-02
16  1.5000000000000E-01  6.0418837721094E-01 -7.1998589087871E-02
17  1.6000000000000E-01  6.4238879445235E-01 -7.8332971377541E-02
18  1.7000000000000E-01  6.8014479633461E-01 -8.4825117517253E-02
19  1.8000000000000E-01  7.1741699662885E-01 -9.1445946684795E-02
20  1.9000000000000E-01  7.5416451385030E-01 -9.8161122692535E-02
21  2.0000000000000E-01  7.9034504623478E-01 -1.0493122381562E-01
22  2.1000000000000E-01  8.2591496780294E-01 -1.1171197304705E-01
23  2.2000000000000E-01  8.6082944498430E-01 -1.1845452679447E-01
24  2.3000000000000E-01  8.9504257306923E-01 -1.2510581940910E-01
25  2.4000000000000E-01  9.2850753155919E-01 -1.3160896033506E-01
26  2.5000000000000E-01  9.6117675729540E-01 -1.3790368009586E-01
27  2.6000000000000E-01  9.9300213406603E-01 -1.4392682079809E-01
28  2.7000000000000E-01  1.0239351972232E+00 -1.4961286633645E-01
29  2.8000000000000E-01  1.0539273516847E+00 -1.5489450703535E-01
30  2.9000000000000E-01  1.0829301015560E+00 -1.5970323306384E-01
31  3.0000000000000E-01  1.1108952894794E+00 -1.6396995061830E-01
32  3.1000000000000E-01  1.1377753437142E+00 -1.6762561458385E-01
33  3.2000000000000E-01  1.1635235308570E+00 -1.7060187116537E-01
34  3.3000000000000E-01  1.1880942120442E+00 -1.7283170382370E-01
35  3.4000000000000E-01  1.2114431004282E+00 -1.7425007576589E-01
36  3.5000000000000E-01  1.2335275176865E+00 -1.7479456221950E-01
37  3.6000000000000E-01  1.2543066473167E+00 -1.7440596577359E-01
38  3.7000000000000E-01  1.2737417824818E+00 -1.7302890818978E-01
39  3.8000000000000E-01  1.2917965662034E+00 -1.7061239227900E-01
40  3.9000000000000E-01  1.3084372217542E+00 -1.6711032769820E-01
41  4.0000000000000E-01  1.3236327711773E+00 -1.6248201484712E-01
42  4.1000000000000E-01  1.3373552399536E+00 -1.5669258143425E-01
43  4.2000000000000E-01  1.3495798459524E+00 -1.4971336673036E-01
44  4.3000000000000E-01  1.3602851709320E+00 -1.4152224903319E-01
45  4.4000000000000E-01  1.3694533130072E+00 -1.3210391242421E-01
46  4.5000000000000E-01  1.3770700186620E+00 -1.2145004950150E-01
47  4.6000000000000E-01  1.3831247930673E+00 -1.0955949741702E-01
48  4.7000000000000E-01  1.3876109876526E+00 -9.6438305225470E-02
49  4.8000000000000E-01  1.3905258640813E+00 -8.2099731258155E-02
50  4.9000000000000E-01  1.3918706339911E+00 -6.6564169963101E-02
51  5.0000000000000E-01  1.3916504740767E+00 -4.9859008394039E-02
52  5.1000000000000E-01  1.3898745163128E+00 -3.2018413277977E-02
53  5.2000000000000E-01  1.3865558133427E+00 -1.3083050337446E-02
54  5.3000000000000E-01  1.3817112792763E+00  6.9002617200184E-03
55  5.4000000000000E-01  1.3753616063715E+00  2.7878959412608E-02
56  5.5000000000000E-01  1.3675311582840E+00  4.9795201067353E-02
57  5.6000000000000E-01  1.3582478407902E+00  7.2586387284919E-02
58  5.7000000000000E-01  1.3475429510855E+00  9.6185730171166E-02
59  5.8000000000000E-01  1.3354510069615E+00  1.2052286564339E-01
60  5.9000000000000E-01  1.3220095573403E+00  1.4552450259429E-01
61  6.0000000000000E-01  1.3072589758191E+00  1.7111510223099E-01
62  6.1000000000000E-01  1.2912422390264E+00  1.9721758050480E-01
63  6.2000000000000E-01  1.2740046917275E+00  2.2375402621577E-01
64  6.3000000000000E-01  1.2555938007351E+00  2.5064642711695E-01
65  6.4000000000000E-01  1.2360588997776E+00  2.7781739616253E-01
66  6.5000000000000E-01  1.2154509275530E+00  3.0519088994210E-01
67  6.6000000000000E-01  1.1938221612542E+00  3.3269291132372E-01
68  6.7000000000000E-01  1.1712259478830E+00  3.6025218839193E-01
69  6.8000000000000E-01  1.1477164356819E+00  3.8780082191316E-01
70  6.9000000000000E-01  1.1233483080025E+00  4.1527489379048E-01
71  7.0000000000000E-01  1.0981765218951E+00  4.4261502927999E-01
72  7.1000000000000E-01  1.0722560536495E+00  4.6976690613034E-01
73  7.2000000000000E-01  1.0456416534413E+00  4.9668170427229E-01
74  7.3000000000000E-01  1.0183876111399E+00  5.2331649022179E-01
75  7.4000000000000E-01  9.9054753522098E-01  5.4963453096417E-01
76  7.5000000000000E-01  9.6217414658933E-01  5.7560553275234E-01
77  7.6000000000000E-01  9.3331908896831E-01  6.0120580097340E-01
78  7.7000000000000E-01  9.0403275734647E-01  6.2641831800713E-01
79  7.8000000000000E-01  8.7436414579068E-01  6.5123273681163E-01
80  7.9000000000000E-01  8.4436071574463E-01  6.7564528881651E-01
81  8.0000000000000E-01  8.1406828572956E-01  6.9965860557458E-01
82  8.1000000000000E-01  7.8353094315493E-01  7.2328145451194E-01
83  8.2000000000000E-01  7.5279097873143E-01  7.4652839001370E-01
84  8.3000000000000E-01  7.2188884375973E-01  7.6941932198056E-01
85  8.4000000000000E-01  6.9086313034743E-01  7.9197900488183E-01
86  8.5000000000000E-01  6.5975057438618E-01  8.1423645120395E-01
87  8.6000000000000E-01  6.2858608090216E-01  8.3622427404376E-01
88  8.7000000000000E-01  5.9740277117926E-01  8.5797796441163E-01
89  8.8000000000000E-01  5.6623205084496E-01  8.7953510958874E-01
90  8.9000000000000E-01  5.3510369790863E-01  9.0093455961244E-01
91  9.0000000000000E-01  5.0404596954888E-01  9.2221554964271E-01
92  9.1000000000000E-01  4.7308572626574E-01  9.4341678658208E-01
93  9.2000000000000E-01  4.4224857184233E-01  9.6457550887747E-01
94  9.3000000000000E-01  4.1155900740339E-01  9.8572652892063E-01
95  9.4000000000000E-01  3.8104059771337E-01  1.0069012678807E+00
96  9.5000000000000E-01  3.5071614772631E-01  1.0281267931450E+00
97  9.6000000000000E-01  3.2060788728366E-01  1.0494248688097E+00
98  9.7000000000000E-01  2.9073766175486E-01  1.0708110298522E+00
99  9.8000000000000E-01  2.6112712632873E-01  1.0922936907250E+00
100  9.9000000000000E-01  2.3179794159212E-01  1.1138732991462E+00
101  1.0000000000000E+00  2.0277196797482E-01  1.1355415458115E+00
102  1.0100000000000E+00  1.7407145659694E-01  1.1572806406370E+00
103  1.0200000000000E+00  1.4571923402600E-01  1.1790626659371E+00
104  1.0300000000000E+00  1.1773887843564E-01  1.2008490166792E+00
105  1.0400000000000E+00  9.0154884655713E-02  1.2225899376080E+00
106  1.0500000000000E+00  6.2992815614292E-02  1.2442241666254E+00
107  1.0600000000000E+00  3.6279437695223E-02  1.2656786933309E+00
108  1.0700000000000E+00  1.0042837570653E-02  1.2868686410820E+00
109  1.0800000000000E+00 -1.5687481884154E-02  1.3076972803246E+00
110  1.0900000000000E+00 -4.0880528925927E-02  1.3280561802678E+00
111  1.1000000000000E+00 -6.5503775787118E-02  1.3478255052381E+00
112  1.1100000000000E+00 -8.9523139199768E-02  1.3668744612419E+00
113  1.1200000000000E+00 -1.1290299066923E-01  1.3850618973924E+00
114  1.1300000000000E+00 -1.3560619844922E-01  1.4022370659110E+00
115  1.1400000000000E+00 -1.5759420303392E-01  1.4182405433907E+00
116  1.1500000000000E+00 -1.7882712782589E-01  1.4329053149065E+00
117  1.1600000000000E+00 -1.9926392645999E-01  1.4460580213608E+00
118  1.1700000000000E+00 -2.1886256805681E-01  1.4575203691593E+00
119  1.1800000000000E+00 -2.3758026144410E-01  1.4671106999027E+00
120  1.1900000000000E+00 -2.5537371911400E-01  1.4746457162533E+00
121  1.2000000000000E+00 -2.7219946137423E-01  1.4799423584600E+00
122  1.2100000000000E+00 -2.8801416079804E-01  1.4828198242035E+00
123  1.2200000000000E+00 -3.0277502667118E-01  1.4831017224118E+00
124  1.2300000000000E+00 -3.1644022867413E-01  1.4806183495088E+00
125  1.2400000000000E+00 -3.2896935850980E-01  1.4752090741286E+00
126  1.2500000000000E+00 -3.4032392758853E-01  1.4667248136677E+00
127  1.2600000000000E+00 -3.5046789820651E-01  1.4550305831232E+00
128  1.2700000000000E+00 -3.5936824488333E-01  1.4400080934178E+00
129  1.2800000000000E+00 -3.6699554166168E-01  1.4215583728573E+00
130  1.2900000000000E+00 -3.7332457020258E-01  1.3996043814527E+00
131  1.3000000000000E+00 -3.7833494241702E-01  1.3740935835067E+00
132  1.3100000000000E+00 -3.8201173015943E-01  1.3450004391203E+00
133  1.3200000000000E+00 -3.8434609315943E-01  1.3123287700858E+00
134  1.3300000000000E+00 -3.8533589485686E-01  1.2761139498850E+00
135  1.3400000000000E+00 -3.8498629414497E-01  1.2364248612696E+00
136  1.3500000000000E+00 -3.8331029918980E-01  1.1933655580592E+00
137  1.3600000000000E+00 -3.8032926747328E-01  1.1470765603234E+00
138  1.3700000000000E+00 -3.7607333398415E-01  1.0977357039609E+00
139  1.3800000000000E+00 -3.7058174705546E-01  1.0455584568442E+00
140  1.3900000000000E+00 -3.6390308869150E-01  9.9079760406345E-01
141  1.4000000000000E+00 -3.5609535334411E-01  9.3374219439823E-01
142  1.4100000000000E+00 -3.4722585594324E-01  8.7471562879420E-01
143  1.4200000000000E+00 -3.3737093658820E-01  8.1407275943852E-01
144  1.4300000000000E+00 -3.2661542560835E-01  7.5219585480697E-01
145  1.4400000000000E+00 -3.1505182871120E-01  6.8948927181448E-01
146  1.4500000000000E+00 -3.0277918763928E-01  6.2637266089768E-01
147  1.4600000000000E+00 -2.8990156709780E-01  5.6327251328207E-01
148  1.4700000000000E+00 -2.7652611373662E-01  5.0061184199254E-01
149  1.4800000000000E+00 -2.6276062759575E-01  4.3879776907763E-01
150  1.4900000000000E+00 -2.4871057830014E-01  3.7820675765470E-01
151  1.5000000000000E+00 -2.3447552949193E-01  3.1916742137448E-01
152  1.5100000000000E+00 -2.2014469266004E-01  2.6193944466824E-01
153  1.5200000000000E+00 -2.0579437084027E-01  2.0670487354959E-01
154  1.5300000000000E+00 -1.9149394057097E-01  1.5360857307579E-01
155  1.5400000000000E+00 -1.7731063970219E-01  1.0278837612059E-01
156  1.5500000000000E+00 -1.6330917712449E-01  5.4373714615474E-02
157  1.5600000000000E+00 -1.4955142513921E-01  8.4847364133398E-03
158  1.5700000000000E+00 -1.3609608134255E-01 -3.4768811156996E-02
159  1.5800000000000E+00 -1.2299834851045E-01 -7.5288637565827E-02
160  1.5900000000000E+00 -1.1030963762038E-01 -1.1298888309003E-01
161  1.6000000000000E+00 -9.8077295645825E-02 -1.4779700755880E-01
162  1.6100000000000E+00 -8.6344360803094E-02 -1.7965458415556E-01
163  1.6200000000000E+00 -7.5149347665972E-02 -2.0851798961611E-01
164  1.6300000000000E+00 -6.4526064374550E-02 -2.3435898274583E-01
165  1.6400000000000E+00 -5.4503463874125E-02 -2.5716516426186E-01
166  1.6500000000000E+00 -4.5105530808768E-02 -2.7694031210940E-01
167  1.6600000000000E+00 -3.6351205360631E-02 -2.9370458763382E-01
168  1.6700000000000E+00 -2.8254345428768E-02 -3.0749460701129E-01
169  1.6800000000000E+00 -2.0823727076267E-02 -3.1836337922151E-01
170  1.6900000000000E+00 -1.4063084463890E-02 -3.2638010486938E-01
171  1.7000000000000E+00 -7.9711886808972E-03 -3.3162983874400E-01
172  1.7100000000000E+00 -2.5419653545173E-03 -3.3421301612959E-01
173  1.7200000000000E+00  2.2353497277374E-03 -3.3424484562705E-01
174  1.7300000000000E+00  6.3760180167063E-03 -3.3185457209657E-01
175  1.7400000000000E+00  9.8995700304437E-03 -3.2718461472337E-01
176  1.7500000000000E+00  1.2829543349652E-02 -3.2038958637702E-01
177  1.7600000000000E+00  1.5193188808024E-02 -3.1163520145578E-01
178  1.7700000000000E+00  1.7021147250293E-02 -3.0109708069497E-01
179  1.7800000000000E+00  1.8347099465665E-02 -2.8895946221340E-01
180  1.7900000000000E+00  1.9207392213873E-02 -2.7541382923826E-01
181  1.8000000000000E+00  1.9640643445447E-02 -2.6065746556361E-01
182  1.8100000000000E+00  1.9687330054825E-02 -2.4489195068352E-01
183  1.8200000000000E+00  1.9389361683285E-02 -2.2832160718404E-01
184  1.8300000000000E+00  1.8789644214121E-02 -2.1115191341422E-01
185  1.8400000000000E+00  1.7931636723259E-02 -1.9358789490123E-01
186  1.8500000000000E+00  1.6858905740013E-02 -1.7583250831860E-01
187  1.8600000000000E+00  1.5614680696830E-02 -1.5808503188934E-01
188  1.8700000000000E+00  1.4241414825391E-02 -1.4053947723792E-01
189  1.8800000000000E+00  1.2780353110867E-02 -1.2338302988470E-01
190  1.8900000000000E+00  1.1271112544605E-02 -1.0679453642051E-01
191  1.9000000000000E+00  9.7513064595821E-03 -9.0943131745697E-02
192  1.9100000000000E+00  8.2559051125947E-03 -7.5986119747149E-02
193  1.9200000000000E+00  6.8152559599718E-03 -6.2062801404264E-02
194  1.9300000000000E+00  5.4580502424110E-03 -4.9303023108305E-02
195  1.9400000000000E+00  4.2115852741369E-03 -3.7827883427464E-02
196  1.9500000000000E+00  3.0990176339673E-03 -2.7741524179287E-02
197  1.9600000000000E+00  2.1394944647458E-03 -1.9131334486045E-02
198  1.9700000000000E+00  1.3479062927907E-03 -1.2067087479691E-02
199  1.9800000000000E+00  7.3500815012894E-04 -6.6029422800890E-03
200  1.9900000000000E+00  3.0424323171273E-04 -2.7486228447012E-03
201  2.0000000000000E+00  6.6811758640035E-05 -6.0868937379507E-04
202  2.0100000000000E+00 -3.8488395203270E-06  3.5304079158429E-05
203  2.0200000000000E+00 -4.5857927427934E-07  4.2264848250479E-06
204  2.03  0. -0.
205  2.04 -0.  0.
206  2.05 -0. -0.
207  2.06  0.  0.
208  2.07  0.  0.
209  2.08  0.  0.
210  2.09  0.  0.
211  2.10  0.  0.
212  2.11  0.  0.
213  2.12  0.  0.
214  2.13  0.  0.
215  2.14  0.  0.
216  2.15  0.  0.
217  2.16  0.  0.
218  2.17  0.  0.
219  2.18  0.  0.
220  2.19  0.  0.
221  2.20  0.  0.
222  2.21  0.  0.
223  2.22  0.  0.
224  2.23  0.  0.
225  2.24  0.  0.
226  2.25  0.  0.
227  2.26  0.  0.
228  2.27  0.  0.
229  2.28  0.  0.
230  2.29  0.  0.
231  2.30  0.  0.
232  2.31  0.  0.
233  2.32  0.  0.
234  2.33  0.  0.
235  2.34  0.  0.
236  2.35  0.  0.
237  2.36  0.  0.
238  2.37  0.  0.
239  2.38  0.  0.
240  2.39  0.  0.
241  2.40  0.  0.
242  2.41  0.  0.
243  2.42  0.  0.
244  2.43  0.  0.
245  2.44  0.  0.
246  2.45  0.  0.
247  2.46  0.  0.
248  2.47  0.  0.
249  2.48  0.  0.
250  2.49  0.  0.
251  2.50  0.  0.
252  2.51  0.  0.
253  2.52  0.  0.
254  2.53  0.  0.
255  2.54  0.  0.
256  2.55  0.  0.
257  2.56  0.  0.
258  2.57  0.  0.
259  2.58  0.  0.
260  2.59  0.  0.
261  2.60  0.  0.
262  2.61  0.  0.
263  2.62  0.  0.
264  2.63  0.  0.
265  2.64  0.  0.
266  2.65  0.  0.
267  2.66  0.  0.
268  2.67  0.  0.
269  2.68  0.  0.
270  2.69  0.  0.
271  2.70  0.  0.
272  2.71  0.  0.
273  2.72  0.  0.
274  2.73  0.  0.
275  2.74  0.  0.
276  2.75  0.  0.
277  2.76  0.  0.
278  2.77  0.  0.
279  2.78  0.  0.
280  2.79  0.  0.
281  2.80  0.  0.
282  2.81  0.  0.
283  2.82  0.  0.
284  2.83  0.  0.
285  2.84  0.  0.
286  2.85  0.  0.
287  2.86  0.  0.
288  2.87  0.  0.
289  2.88  0.  0.
290  2.89  0.  0.
291  2.90  0.  0.
292  2.91  0.  0.
293  2.92  0.  0.
294  2.93  0.  0.
295  2.94  0.  0.
296  2.95  0.  0.
297  2.96  0.  0.
298  2.97  0.  0.
299  2.98  0.  0.
300  2.99  0.  0.
301  3.00  0.  0.
302  3.01  0.  0.
303  3.02  0.  0.
304  3.03  0.  0.
305  3.04  0.  0.
306  3.05  0.  0.
307  3.06  0.  0.
308  3.07  0.  0.
309  3.08  0.  0.
310  3.09  0.  0.
311  3.10  0.  0.
312  3.11  0.  0.
313  3.12  0.  0.
314  3.13  0.  0.
315  3.14  0.  0.
316  3.15  0.  0.
317  3.16  0.  0.
318  3.17  0.  0.
319  3.18  0.  0.
320  3.19  0.  0.
321  3.20  0.  0.
322  3.21  0.  0.
323  3.22  0.  0.
324  3.23  0.  0.
325  3.24  0.  0.
326  3.25  0.  0.
327  3.26  0.  0.
328  3.27  0.  0.
329  3.28  0.  0.
330  3.29  0.  0.
331  3.30  0.  0.
332  3.31  0.  0.
333  3.32  0.  0.
334  3.33  0.  0.
335  3.34  0.  0.
336  3.35  0.  0.
337  3.36  0.  0.
338  3.37  0.  0.
339  3.38  0.  0.
340  3.39  0.  0.
341  3.40  0.  0.
342  3.41  0.  0.
343  3.42  0.  0.
344  3.43  0.  0.
345  3.44  0.  0.
346  3.45  0.  0.
347  3.46  0.  0.
348  3.47  0.  0.
349  3.48  0.  0.
350  3.49  0.  0.
351  3.50  0.  0.
352  3.51  0.  0.
353  3.52  0.  0.
354  3.53  0.  0.
355  3.54  0.  0.
356  3.55  0.  0.
357  3.56  0.  0.
358  3.57  0.  0.
359  3.58  0.  0.
360  3.59  0.  0.
361  3.60  0.  0.
362  3.61  0.  0.
363  3.62  0.  0.
364  3.63  0.  0.
365  3.64  0.  0.
366  3.65  0.  0.
367  3.66  0.  0.
368  3.67  0.  0.
369  3.68  0.  0.
370  3.69  0.  0.
371  3.70  0.  0.
372  3.71  0.  0.
373  3.72  0.  0.
374  3.73  0.  0.
375  3.74  0.  0.
376  3.75  0.  0.
377  3.76  0.  0.
378  3.77  0.  0.
379  3.78  0.  0.
380  3.79  0.  0.
381  3.80  0.  0.
382  3.81  0.  0.
383  3.82  0.  0.
384  3.83  0.  0.
385  3.84  0.  0.
386  3.85  0.  0.
387  3.86  0.  0.
388  3.87  0.  0.
389  3.88  0.  0.
390  3.89  0.  0.
391  3.90  0.  0.
392  3.91  0.  0.
393  3.92  0.  0.
394  3.93  0.  0.
395  3.94  0.  0.
396  3.95  0.  0.
397  3.96  0.  0.
398  3.97  0.  0.
399  3.98  0.  0.
400  3.99  0.  0.
401  4.00  0.  0.
402  4.01  0.  0.
403  4.02  0.  0.
404  4.03  0.  0.
405  4.04  0.  0.
406  4.05  0.  0.
407  4.06  0.  0.
408  4.07  0.  0.
409  4.08  0.  0.
410  4.09  0.  0.
411  4.10  0.  0.
412  4.11  0.  0.
413  4.12  0.  0.
414  4.13  0.  0.
415  4.14  0.  0.
416  4.15  0.  0.
417  4.16  0.  0.
418  4.17  0.  0.
419  4.18  0.  0.
420  4.19  0.  0.
421  4.20  0.  0.
422  4.21  0.  0.
423  4.22  0.  0.
424  4.23  0.  0.
425  4.24  0.  0.
426  4.25  0.  0.
427  4.26  0.  0.
428  4.27  0.  0.
429  4.28  0.  0.
430  4.29  0.  0.
431  4.30  0.  0.
432  4.31  0.  0.
433  4.32  0.  0.
434  4.33  0.  0.
435  4.34  0.  0.
436  4.35  0.  0.
437  4.36  0.  0.
438  4.37  0.  0.
439  4.38  0.  0.
440  4.39  0.  0.
441  4.40  0.  0.
442  4.41  0.  0.
443  4.42  0.  0.
444  4.43  0.  0.
445  4.44  0.  0.
446  4.45  0.  0.
447  4.46  0.  0.
448  4.47  0.  0.
449  4.48  0.  0.
450  4.49  0.  0.
451  4.50  0.  0.
452  4.51  0.  0.
453  4.52  0.  0.
454  4.53  0.  0.
455  4.54  0.  0.
456  4.55  0.  0.
457  4.56  0.  0.
458  4.57  0.  0.
459  4.58  0.  0.
460  4.59  0.  0.
461  4.60  0.  0.
462  4.61  0.  0.
463  4.62  0.  0.
464  4.63  0.  0.
465  4.64  0.  0.
466  4.65  0.  0.
467  4.66  0.  0.
468  4.67  0.  0.
469  4.68  0.  0.
470  4.69  0.  0.
471  4.70  0.  0.
472  4.71  0.  0.
473  4.72  0.  0.
474  4.73  0.  0.
475  4.74  0.  0.
476  4.75  0.  0.
477  4.76  0.  0.
478  4.77  0.  0.
479  4.78  0.  0.
480  4.79  0.  0.
481  4.80  0.  0.
482  4.81  0.  0.
483  4.82  0.  0.
484  4.83  0.  0.
485  4.84  0.  0.
486  4.85  0.  0.
487  4.86  0.  0.
488  4.87  0.  0.
489  4.88  0.  0.
490  4.89  0.  0.
491  4.90  0.  0.
492  4.91  0.  0.
493  4.92  0.  0.
494  4.93  0.  0.
495  4.94  0.  0.
496  4.95  0.  0.
497  4.96  0.  0.
498  4.97  0.  0.
499  4.98  0.  0.
500  4.99  0.  0.
501  5.00  0.  0.
502  5.01  0.  0.
503  5.02  0.  0.
504  5.03  0.  0.
505  5.04  0.  0.
506  5.05  0.  0.
507  5.06  0.  0.
508  5.07  0.  0.
509  5.08  0.  0.
510  5.09  0.  0.
511  5.10  0.  0.
512  5.11  0.  0.
513  5.12  0.  0.
514  5.13  0.  0.
515  5.14  0.  0.
516  5.15  0.  0.
517  5.16  0.  0.
518  5.17  0.  0.
519  5.18  0.  0.
520  5.19  0.  0.
521  5.20  0.  0.
522  5.21  0.  0.
523  5.22  0.  0.
524  5.23  0.  0.
525  5.24  0.  0.
526  5.25  0.  0.
527  5.26  0.  0.
528  5.27  0.  0.
529  5.28  0.  0.
530  5.29  0.  0.
531  5.30  0.  0.
532  5.31  0.  0.
533  5.32  0.  0.
534  5.33  0.  0.
535  5.34  0.  0.
536  5.35  0.  0.
537  5.36  0.  0.
538  5.37  0.  0.
539  5.38  0.  0.
540  5.39  0.  0.
541  5.40  0.  0.
542  5.41  0.  0.
543  5.42  0.  0.
544  5.43  0.  0.
545  5.44  0.  0.
546  5.45  0.  0.
547  5.46  0.  0.
548  5.47  0.  0.
549  5.48  0.  0.
550  5.49  0.  0.
551  5.50  0.  0.
552  5.51  0.  0.
553  5.52  0.  0.
554  5.53  0.  0.
555  5.54  0.  0.
556  5.55  0.  0.
557  5.56  0.  0.
558  5.57  0.  0.
559  5.58  0.  0.
560  5.59  0.  0.
561  5.60  0.  0.
562  5.61  0.  0.
563  5.62  0.  0.
564  5.63  0.  0.
565  5.64  0.  0.
566  5.65  0.  0.
567  5.66  0.  0.
568  5.67  0.  0.
569  5.68  0.  0.
570  5.69  0.  0.
571  5.70  0.  0.
572  5.71  0.  0.
573  5.72  0.  0.
574  5.73  0.  0.
575  5.74  0.  0.
576  5.75  0.  0.
577  5.76  0.  0.
578  5.77  0.  0.
579  5.78  0.  0.
580  5.79  0.  0.
581  5.80  0.  0.
582  5.81  0.  0.
583  5.82  0.  0.
584  5.83  0.  0.
585  5.84  0.  0.
586  5.85  0.  0.
587  5.86  0.  0.
588  5.87  0.  0.
589  5.88  0.  0.
590  5.89  0.  0.
591  5.90  0.  0.
592  5.91  0.  0.
593  5.92  0.  0.
594  5.93  0.  0.
595  5.94  0.  0.
596  5.95  0.  0.
597  5.96  0.  0.
598  5.97  0.  0.
599  5.98  0.  0.
600  5.99  0.  0.
1                         5.5522973405909E+00  3.4077489910228E-01
1  0.0000000000000E+00  6.7893991123613E-09 -4.2679663969647E-08
2  1.0000000000000E-02  1.4557874768298E-03 -3.7566581123670E-03
3  2.0000000000000E-02  5.8098648456057E-03 -1.4953093967431E-02
4  3.0000000000000E-02  1.3022593349355E-02 -3.3370054467177E-02
5  4.0000000000000E-02  2.3028625854686E-02 -5.8646634091470E-02
6  5.0000000000000E-02  3.5737969237075E-02 -9.0286962833492E-02
7  6.0000000000000E-02  5.1037444367834E-02 -1.2766939785902E-01
8  7.0000000000000E-02  6.8792516955790E-02 -1.7005805116125E-01
9  8.0000000000000E-02  8.8849465707283E-02 -2.1661644280320E-01
10  9.0000000000000E-02  1.1103784809677E-01 -2.6642303046272E-01
11  1.0000000000000E-01  1.3517321860076E-01 -3.1848833162346E-01
12  1.1000000000000E-01  1.6106004964084E-01 -3.7177332551329E-01
13  1.2000000000000E-01  1.8849480179267E-01 -4.2520879830934E-01
14  1.3000000000000E-01  2.1726908711519E-01 -4.7771527763607E-01
15  1.4000000000000E-01  2.4717286778884E-01 -5.2822319129941E-01
16  1.5000000000000E-01  2.7799763165521E-01 -5.7569288073126E-01
17  1.6000000000000E-01  3.0953948673411E-01 -6.1913410184996E-01
18  1.7000000000000E-01  3.4160211835117E-01 -6.5762465493951E-01
19  1.8000000000000E-01  3.7399955511127E-01 -6.9032780055913E-01
20  1.9000000000000E-01  4.0655869355352E-01 -7.1650814014142E-01
21  2.0000000000000E-01  4.3912153585812E-01 -7.3554566744029E-01
22  2.1000000000000E-01  4.7154710035983E-01 -7.4694772985433E-01
23  2.2000000000000E-01  5.0371297076097E-01 -7.5035867629308E-01
24  2.3000000000000E-01  5.3551645671495E-01 -7.4556700999628E-01
25  2.4000000000000E-01  5.6687534574546E-01 -7.3250990980991E-01
26  2.5000000000000E-01  5.9772823414380E-01 -7.1127503105799E-01
27  2.6000000000000E-01  6.2803443240407E-01 -6.8209954646691E-01
28  2.7000000000000E-01  6.5777344876905E-01 -6.4536643770989E-01
29  2.8000000000000E-01  6.8694406241937E-01 -6.0159809813885E-01
30  2.9000000000000E-01  7.1556300559784E-01 -5.5144735625368E-01
31  3.0000000000000E-01  7.4366328137524E-01 -4.9568607653764E-01
32  3.1000000000000E-01  7.7129215069605E-01 -4.3519153860813E-01
33  3.2000000000000E-01  7.9850882866181E-01 -3.7093083638641E-01
34  3.3000000000000E-01  8.2538193559837E-01 -3.0394357543626E-01
35  3.4000000000000E-01  8.5198675320484E-01 -2.3532317809204E-01
36  3.5000000000000E-01  8.7840233990732E-01 -1.6619713191373E-01
37  3.6000000000000E-01  9.0470856236420E-01 -9.7706536891216E-02
38  3.7000000000000E-01  9.3098310183853E-01 -3.0985320301466E-02
39  3.8000000000000E-01  9.5729849482927E-01  3.2860505054003E-02
40  3.9000000000000E-01  9.8371926692181E-01  9.2773163474250E-02
41  4.0000000000000E-01  1.0102992172830E+00  1.4776265086591E-01
42  4.1000000000000E-01  1.0370789086133E+00  1.9692512562247E-01
43  4.2000000000000E-01  1.0640834137193E+00  2.3945982030101E-01
44  4.3000000000000E-01  1.0913203652567E+00  2.7468416456862E-01
45  4.4000000000000E-01  1.1187783496852E+00  3.0204684158894E-01
46  4.5000000000000E-01  1.1464256801878E+00  3.2113853680352E-01
47  4.6000000000000E-01  1.1742095763381E+00  3.3170017927416E-01
48  4.7000000000000E-01  1.2020557707853E+00  3.3362852064974E-01
49  4.8000000000000E-01  1.2298685553016E+00  3.2697894459712E-01
50  4.9000000000000E-01  1.2575312703488E+00  3.1196544932469E-01
51  5.0000000000000E-01  1.2849072340139E+00  2.8895779673045E-01
52  5.1000000000000E-01  1.3118410979076E+00  2.5847587279828E-01
53  5.2000000000000E-01  1.3381606095419E+00  2.2118135421910E-01
54  5.3000000000000E-01  1.3636787529861E+00  1.7786682490970E-01
55  5.4000000000000E-01  1.3881962323564E+00  1.2944253225317E-01
56  5.5000000000000E-01  1.4115042560896E+00  7.6921015646794E-02
57  5.6000000000000E-01  1.4333875740838E+00  2.1399878533426E-02
58  5.7000000000000E-01  1.4536277147935E+00 -3.5956991200366E-02
59  5.8000000000000E-01  1.4720063653226E+00 -9.3939419368035E-02
60  5.9000000000000E-01  1.4883088345503E+00 -1.5131180689407E-01
61  6.0000000000000E-01  1.5023275374190E+00 -2.0683448346677E-01
62  6.1000000000000E-01  1.5138654377349E+00 -2.5928517338500E-01
63  6.2000000000000E-01  1.5227393872090E+00 -3.0748019142671E-01
64  6.3000000000000E-01  1.5287833000004E+00 -3.5029499138715E-01
65  6.4000000000000E-01  1.5318511046712E+00 -3.8668370161281E-01
66  6.5000000000000E-01  1.5318194192048E+00 -4.1569730018782E-01
67  6.6000000000000E-01  1.5285898994825E+00 -4.3650010707637E-01
68  6.7000000000000E-01  1.5220912172985E+00 -4.4838430104104E-01
69  6.8000000000000E-01  1.5122806304939E+00 -4.5078220498538E-01
70  6.9000000000000E-01  1.4991451150086E+00 -4.4327612384796E-01
71  7.0000000000000E-01  1.4827020364373E+00 -4.2560556357118E-01
72  7.1000000000000E-01  1.4629993469010E+00 -3.9767170715004E-01
73  7.2000000000000E-01  1.4401153015466E+00 -3.5953907347820E-01
74  7.3000000000000E-01  1.4141576976179E+00 -3.1143433571750E-01
75  7.4000000000000E-01  1.3852626476285E+00 -2.5374232729398E-01
76  7.5000000000000E-01  1.3535929065646E+00 -1.8699931441829E-01
77  7.6000000000000E-01  1.3193357810819E+00 -1.1188366329935E-01
78  7.7000000000000E-01  1.2827006562027E+00 -2.9204077065855E-02
79  7.8000000000000E-01  1.2439161819070E+00  6.0114379036424E-02
80  7.9000000000000E-01  1.2032271681328E+00  1.5504620614439E-01
81  8.0000000000000E-01  1.1608912419274E+00  2.5448306130558E-01
82  8.1000000000000E-01  1.1171753247352E+00  3.5725268617717E-01
83  8.2000000000000E-01  1.0723519909813E+00  4.6213882983389E-01
84  8.3000000000000E-01  1.0266957711578E+00  5.6790180382356E-01
85  8.4000000000000E-01  9.8047946350148E-01  6.7329929751252E-01
86  8.5000000000000E-01  9.3397051805360E-01  7.7710707854335E-01
87  8.6000000000000E-01  8.8742755541463E-01  8.7813920692780E-01
88  8.7000000000000E-01  8.4109707988321E-01  9.7526740183306E-01
89  8.8000000000000E-01  7.9521044294670E-01  1.0674392172738E+00
90  8.9000000000000E-01  7.4998110834041E-01  1.1536947063588E+00
91  9.0000000000000E-01  7.0560226420473E-01  1.2331812830035E+00
92  9.1000000000000E-01  6.6224482135283E-01  1.3051665245437E+00
93  9.2000000000000E-01  6.2005582943771E-01  1.3690486978077E+00
94  9.3000000000000E-01  5.7915733501478E-01  1.4243648341848E+00
95  9.4000000000000E-01  5.3964569728098E-01  1.4707962252435E+00
96  9.5000000000000E-01  5.0159136878987E-01  1.5081712586337E+00
97  9.6000000000000E-01  4.6503913985219E-01  1.5364655634559E+00
98  9.7000000000000E-01  4.3000883679784E-01  1.5557994840518E+00
99  9.8000000000000E-01  3.9649645595361E-01  1.5664329503513E+00
100  9.9000000000000E-01  3.6447570724020E-01  1.5687578605881E+00
101  1.0000000000000E+00  3.3389993385809E-01  1.5632881374748E+00
102  1.0100000000000E+00  3.0470436775480E-01  1.5506476609839E+00
103  1.0200000000000E+00  2.7680867456315E-01  1.5315563189818E+00
104  1.0300000000000E+00  2.5011973658918E-01  1.5068144503737E+00
105  1.0400000000000E+00  2.2453461829598E-01  1.4772859835765E+00
106  1.0500000000000E+00  1.9994365564489E-01  1.4438805955780E+00
107  1.0600000000000E+00  1.7623360867787E-01  1.4075352331401E+00
108  1.0700000000000E+00  1.5329081587768E-01  1.3691953476479E+00
109  1.0800000000000E+00  1.3100428913781E-01  1.3297961985420E+00
110  1.0900000000000E+00  1.0926868959817E-01  1.2902445771902E+00
111  1.1000000000000E+00  8.7987127119824E-02  1.2514012935728E+00
112  1.1100000000000E+00  6.7073729731976E-02  1.2140647524797E+00
113  1.1200000000000E+00  4.6455933901314E-02  1.1789559244547E+00
114  1.1300000000000E+00  2.6076451880364E-02  1.1467049897856E+00
115  1.1400000000000E+00  5.8948785408821E-03  1.1178399021791E+00
116  1.1500000000000E+00 -1.4111093073063E-02  1.0927770827007E+00
117  1.1600000000000E+00 -3.3944870929619E-02  1.0718144151608E+00
118  1.1700000000000E+00 -5.3590593664065E-02  1.0551266717109E+00
119  1.1800000000000E+00 -7.3013198509383E-02  1.0427634531582E+00
120  1.1900000000000E+00 -9.2158927269787E-02  1.0346496829004E+00
121  1.2000000000000E+00 -1.1095626211896E-01  1.0305886473377E+00
122  1.2100000000000E+00 -1.2931727523812E-01  1.0302675300824E+00
123  1.2200000000000E+00 -1.4713936881587E-01  1.0332653425364E+00
124  1.2300000000000E+00 -1.6430737495261E-01  1.0390631108721E+00
125  1.2400000000000E+00 -1.8069597852946E-01  1.0470561389892E+00
126  1.2500000000000E+00 -1.9617242030933E-01  1.0565681297976E+00
127  1.2600000000000E+00 -2.1059943248028E-01  1.0668669134921E+00
128  1.2700000000000E+00 -2.2383835455893E-01  1.0771815014762E+00
129  1.2800000000000E+00 -2.3575237415249E-01  1.0867201590140E+00
130  1.2900000000000E+00 -2.4620983449854E-01  1.0946891683525E+00
131  1.3000000000000E+00 -2.5508754898134E-01  1.1003119370877E+00
132  1.3100000000000E+00 -2.6227406195610E-01  1.1028480940522E+00
133  1.3200000000000E+00 -2.6767279513037E-01  1.1016122066157E+00
134  1.3300000000000E+00 -2.7120501941837E-01  1.0959917488024E+00