Tb    ONCVPSP-4.0.1  r_core=   2.00838   1.60001   1.90311   1.35326
65.0000     19.0000      241104    zatom,zion,pspd
8      11   3     4   600     0    pspcod,pspxc,lmax,lloc,mmax,r2well
5.99000000  4.00000000  0.00000000    rchrg fchrg qchrg
3     2     2     2     0    nproj
1     1           extension_switch
0                         1.2463439002490E+01  2.8747770084856E+00  5.5533672357343E-01
1  0.0000000000000E+00 -9.3117752397731E-10  2.1024756102772E-09 -3.1199742234200E-09
2  1.0000000000000E-02  5.5843550301098E-02 -3.0475666120762E-02  4.8296407311426E-02
3  2.0000000000000E-02  1.1151048458987E-01 -6.0609792443512E-02  9.6073173821702E-02
4  3.0000000000000E-02  1.6682585968284E-01 -9.0064753758915E-02  1.4281672709515E-01
5  4.0000000000000E-02  2.2161805788952E-01 -1.1851070745971E-01  1.8802556079275E-01
6  5.0000000000000E-02  2.7572039958645E-01 -1.4562936894372E-01  2.3121609193583E-01
7  6.0000000000000E-02  3.2897269625222E-01 -1.7111764944643E-01  2.7192830946366E-01
8  7.0000000000000E-02  3.8122272522172E-01 -1.9469111293997E-01  3.0973114821548E-01
9  8.0000000000000E-02  4.3232760834933E-01 -2.1608721083790E-01  3.4422752558737E-01
10  9.0000000000000E-02  4.8215507791430E-01 -2.3506825582813E-01  3.7505898194932E-01
11  1.0000000000000E-01  5.3058461444561E-01 -2.5142409919372E-01  4.0190987041844E-01
12  1.1000000000000E-01  5.7750844267226E-01 -2.6497447943591E-01  4.2451104671871E-01
13  1.2000000000000E-01  6.2283237350089E-01 -2.7557101385069E-01  4.4264301556298E-01
14  1.3000000000000E-01  6.6647648176698E-01 -2.8309880888422E-01  4.5613849620460E-01
15  1.4000000000000E-01  7.0837561147673E-01 -2.8747766955645E-01  4.6488437645597E-01
16  1.5000000000000E-01  7.4847970233345E-01 -2.8866289295087E-01  4.6882303149105E-01
17  1.6000000000000E-01  7.8675393349696E-01 -2.8664563565794E-01  4.6795299104919E-01
18  1.7000000000000E-01  8.2317868273892E-01 -2.8145285009125E-01  4.6232894617756E-01
19  1.8000000000000E-01  8.5774930139724E-01 -2.7314678969265E-01  4.5206109428100E-01
20  1.9000000000000E-01  8.9047570778034E-01 -2.6182408816382E-01  4.3731382892766E-01
21  2.0000000000000E-01  9.2138180389530E-01 -2.4761442293844E-01  4.1830378848735E-01
22  2.1000000000000E-01  9.5050472254943E-01 -2.3067877808499E-01  3.9529728517392E-01
23  2.2000000000000E-01  9.7789391397557E-01 -2.1120732664932E-01  3.6860714334003E-01
24  2.3000000000000E-01  1.0036100831323E+00 -1.8941695704887E-01  3.3858898284576E-01
25  2.4000000000000E-01  1.0277239907081E+00 -1.6554847246607E-01  3.0563698991523E-01
26  2.5000000000000E-01  1.0503151325878E+00 -1.3986349620037E-01  2.7017922402426E-01
27  2.6000000000000E-01  1.0714703141031E+00 -1.1264111958250E-01  2.3267251496081E-01
28  2.7000000000000E-01  1.0912821367604E+00 -8.4174332285305E-02  1.9359700920081E-01
29  2.8000000000000E-01  1.1098474163114E+00 -5.4766277639396E-02  1.5345042907781E-01
30  2.9000000000000E-01  1.1272655519741E+00 -2.4726377848433E-02  1.1274211185199E-01
31  3.0000000000000E-01  1.1436368673285E+00  5.6336242364742E-03  7.1986898645071E-02
32  3.1000000000000E-01  1.1590609438796E+00  3.6003658900822E-02  3.1698945275914E-02
33  3.2000000000000E-01  1.1736349684933E+00  6.6079310368513E-02 -7.6144717336507E-03
34  3.3000000000000E-01  1.1874521158762E+00  9.5565735994775E-02 -4.5459080322723E-02
35  3.4000000000000E-01  1.2005999869661E+00  1.2418147571887E-01 -8.1359596037394E-02
36  3.5000000000000E-01  1.2131591235492E+00  1.5166210471428E-01 -1.1486549129675E-01
37  3.6000000000000E-01  1.2252016186092E+00  1.7776368382023E-01 -1.4555648110516E-01
38  3.7000000000000E-01  1.2367898408612E+00  2.0226596452865E-01 -1.7304765854184E-01
39  3.8000000000000E-01  1.2479752906361E+00  2.2497530803436E-01 -1.9699421718394E-01
40  3.9000000000000E-01  1.2587976027745E+00  2.4572728108510E-01 -2.1709570219523E-01
41  4.0000000000000E-01  1.2692837104729E+00  2.6438889507263E-01 -2.3309973711648E-01
42  4.1000000000000E-01  1.2794471821293E+00  2.8086045893631E-01 -2.4480517935250E-01
43  4.2000000000000E-01  1.2892877411738E+00  2.9507702096490E-01 -2.5206466390919E-01
44  4.3000000000000E-01  1.2987909766633E+00  3.0700937942644E-01 -2.5478650201252E-01
45  4.4000000000000E-01  1.3079282501060E+00  3.1666464707999E-01 -2.5293590877119E-01
46  4.5000000000000E-01  1.3166568015755E+00  3.2408635995386E-01 -2.4653554191944E-01
47  4.6000000000000E-01  1.3249200557115E+00  3.2935412626905E-01 -2.3566534183419E-01
48  4.7000000000000E-01  1.3326481257139E+00  3.3258281695868E-01 -2.2046167133824E-01
49  4.8000000000000E-01  1.3397585109493E+00  3.3392130482997E-01 -2.0111576219806E-01
50  4.9000000000000E-01  1.3461569813333E+00  3.3355076495875E-01 -1.7787148359144E-01
51  5.0000000000000E-01  1.3517386392629E+00  3.3168255433763E-01 -1.5102245606667E-01
52  5.1000000000000E-01  1.3563891475775E+00  3.2855569403467E-01 -1.2090854252020E-01
53  5.2000000000000E-01  1.3599861098564E+00  3.2443398211341E-01 -8.7911755411911E-02
54  5.3000000000000E-01  1.3624005873471E+00  3.1960277023451E-01 -5.2451626695104E-02
55  5.4000000000000E-01  1.3634987349769E+00  3.1436544115651E-01 -1.4980093686994E-02
56  5.5000000000000E-01  1.3631435372766E+00  3.0903962821503E-01  2.4024039749114E-02
57  5.6000000000000E-01  1.3611966236346E+00  3.0395322123663E-01  6.4061001875831E-02
58  5.7000000000000E-01  1.3575201411528E+00  2.9944020618984E-01  1.0461624206215E-01
59  5.8000000000000E-01  1.3519786624782E+00  2.9583638815123E-01  1.4516683663428E-01
60  5.9000000000000E-01  1.3444411053812E+00  2.9347504883462E-01  1.8518803513784E-01
61  6.0000000000000E-01  1.3347826405226E+00  2.9268259097530E-01  2.2415986844460E-01
62  6.1000000000000E-01  1.3228865638313E+00  2.9377422225687E-01  2.6157373897725E-01
63  6.2000000000000E-01  1.3086461101839E+00  2.9704973120822E-01  2.9693891313561E-01
64  6.3000000000000E-01  1.2919661856495E+00  3.0278940658553E-01  3.2978883678803E-01
65  6.4000000000000E-01  1.2727649964238E+00  3.1125015018744E-01  3.5968719645416E-01
66  6.5000000000000E-01  1.2509755537251E+00  3.2266183086111E-01  3.8623365151221E-01
67  6.6000000000000E-01  1.2265470353379E+00  3.3722392465461E-01  4.0906916640661E-01
68  6.7000000000000E-01  1.1994459861624E+00  3.5510248269826E-01  4.2788087635826E-01
69  6.8000000000000E-01  1.1696573420281E+00  3.7642746449802E-01  4.4240642543254E-01
70  6.9000000000000E-01  1.1371852631453E+00  4.0129046993549E-01  4.5243772195340E-01
71  7.0000000000000E-01  1.1020537658587E+00  4.2974289846194E-01  4.5782406306809E-01
72  7.1000000000000E-01  1.0643071438178E+00  4.6179455880139E-01  4.5847458769753E-01
73  7.2000000000000E-01  1.0240101722447E+00  4.9741274700756E-01  4.5436002505630E-01
74  7.3000000000000E-01  9.8124809163410E-01  5.3652180502975E-01  4.4551371428929E-01
75  7.4000000000000E-01  9.3612636992585E-01  5.7900316610390E-01  4.3203187944584E-01
76  7.5000000000000E-01  8.8877024490754E-01  6.2469588737793E-01  4.1407315288863E-01
77  7.6000000000000E-01  8.3932405130308E-01  6.7339766428106E-01  3.9185734920002E-01
78  7.7000000000000E-01  7.8795033963631E-01  7.2486631534306E-01  3.6566350058034E-01
79  7.8000000000000E-01  7.3482879649871E-01  7.7882172053018E-01  3.3582717352950E-01
80  7.9000000000000E-01  6.8015497825777E-01  8.3494819077034E-01  3.0273709514843E-01
81  8.0000000000000E-01  6.2413887248171E-01  8.9289724127093E-01  2.6683112556990E-01
82  8.1000000000000E-01  5.6700330340130E-01  9.5229073654229E-01  2.2859162075154E-01
83  8.2000000000000E-01  5.0898219954687E-01  1.0127243708058E+00  1.8854023701623E-01
84  8.3000000000000E-01  4.5031874326408E-01  1.0737714437361E+00  1.4723223523402E-01
85  8.4000000000000E-01  3.9126342310592E-01  1.1349868883090E+00  1.0525034832669E-01
86  8.5000000000000E-01  3.3207201109880E-01  1.1959115049505E+00  6.3198280763838E-02
87  8.6000000000000E-01  2.7300348758106E-01  1.2560763542191E+00  2.1693912878114E-02
88  8.7000000000000E-01  2.1431793669287E-01  1.3150072589509E+00 -1.8637713924000E-02
89  8.8000000000000E-01  1.5627443567007E-01  1.3722293661338E+00 -5.7171552613244E-02
90  8.9000000000000E-01  9.9128960843208E-02  1.4272717187826E+00 -9.3289766798369E-02
91  9.0000000000000E-01  4.3132332691313E-02  1.4796717887256E+00 -1.2638892743490E-01
92  9.1000000000000E-01 -1.1471778553406E-02  1.5289799224804E+00 -1.5588711003393E-01
93  9.2000000000000E-01 -6.4448766385449E-02  1.5747636542482E+00 -1.8123081371163E-01
94  9.3000000000000E-01 -1.1557490161782E-01  1.6166118424583E+00 -2.0190162554918E-01
95  9.4000000000000E-01 -1.6463902873595E-01  1.6541385891857E+00 -2.1742255663946E-01
96  9.5000000000000E-01 -2.1144412949266E-01  1.6869869051000E+00 -2.2736397982954E-01
97  9.6000000000000E-01 -2.5580874021867E-01  1.7148320862921E+00 -2.3134910343609E-01
98  9.7000000000000E-01 -2.9756821145352E-01  1.7373847733234E+00 -2.2905892004579E-01
99  9.8000000000000E-01 -3.3657580072395E-01  1.7543936670371E+00 -2.2023657481775E-01
100  9.9000000000000E-01 -3.7270359157224E-01  1.7656478800110E+00 -2.0469110339314E-01
101  1.0000000000000E+00 -4.0584323422259E-01  1.7709789069134E+00 -1.8230049549965E-01
102  1.0100000000000E+00 -4.3590650552455E-01  1.7702622013671E+00 -1.5301404651376E-01
103  1.0200000000000E+00 -4.6282568799267E-01  1.7634183511613E+00 -1.1685396554961E-01
104  1.0300000000000E+00 -4.8655376982203E-01  1.7504138476786E+00 -7.3916214975325E-02
105  1.0400000000000E+00 -5.0706446966784E-01  1.7312614491731E+00 -2.4370562570193E-02
106  1.0500000000000E+00 -5.2435209169854E-01  1.7060201409715E+00  3.1540166224535E-02
107  1.0600000000000E+00 -5.3843121792813E-01  1.6747946987131E+00  9.3501642392147E-02
108  1.0700000000000E+00 -5.4933624608701E-01  1.6377348633701E+00  1.6113039420181E-01
109  1.0800000000000E+00 -5.5712078227700E-01  1.5950341389587E+00  2.3397696939640E-01
110  1.0900000000000E+00 -5.6185689835932E-01  1.5469282255481E+00  3.1152988747731E-01
111  1.1000000000000E+00 -5.6363426444560E-01  1.4936931014249E+00  3.9322036507021E-01
112  1.1100000000000E+00 -5.6255916699731E-01  1.4356427690802E+00  4.7842779150087E-01
113  1.1200000000000E+00 -5.5875342290474E-01  1.3731266801213E+00  5.6648592564537E-01
114  1.1300000000000E+00 -5.5235319953331E-01  1.3065268543304E+00  6.5668977865399E-01
115  1.1400000000000E+00 -5.4350775012863E-01  1.2362547080125E+00  7.4830314011477E-01
116  1.1500000000000E+00 -5.3237807320268E-01  1.1627476066053E+00  8.4056669730321E-01
117  1.1600000000000E+00 -5.1913550364598E-01  1.0864651564252E+00  9.3270668814532E-01
118  1.1700000000000E+00 -5.0396024238862E-01  1.0078852505894E+00  1.0239440179514E+00
119  1.1800000000000E+00 -4.8703983055833E-01  9.2749988478830E-01  1.1135037575680E+00
120  1.1900000000000E+00 -4.6856757334850E-01  8.4581075994130E-01  1.2006249258185E+00
121  1.2000000000000E+00 -4.4874091833641E-01  7.6332469115224E-01  1.2845704414624E+00
122  1.2100000000000E+00 -4.2775979290196E-01  6.8054884606628E-01  1.3646371089660E+00
123  1.2200000000000E+00 -4.0582490585475E-01  5.9798584116732E-01  1.4401654772228E+00
124  1.2300000000000E+00 -3.8313601952302E-01  5.1612873200955E-01  1.5105493807949E+00
125  1.2400000000000E+00 -3.5989020060636E-01  4.3545594344849E-01  1.5752449379735E+00
126  1.2500000000000E+00 -3.3628006123293E-01  3.5642619901257E-01  1.6337787385472E+00
127  1.2600000000000E+00 -3.1249200609381E-01  2.7947352511748E-01  1.6857549058344E+00
128  1.2700000000000E+00 -2.8870450757289E-01  2.0500242669768E-01  1.7308606606852E+00
129  1.2800000000000E+00 -2.6508643863756E-01  1.3338335635415E-01  1.7688699495963E+00
130  1.2900000000000E+00 -2.4179550321858E-01  6.4948630081591E-02  1.7996446233426E+00
131  1.3000000000000E+00 -2.1897681629849E-01 -1.1019961932649E-05  1.8231325649228E+00
132  1.3100000000000E+00 -1.9676170119132E-01 -6.1249020860830E-02  1.8393620656333E+00
133  1.3200000000000E+00 -1.7526678986507E-01 -1.1856437572106E-01  1.8484316344561E+00
134  1.3300000000000E+00 -1.5459353440225E-01 -1.7180157332981E-01  1.8504942935012E+00
135  1.3400000000000E+00 -1.3482826478871E-01 -2.2084856750996E-01  1.8457352379124E+00
136  1.3500000000000E+00 -1.1604294328822E-01 -2.6563237847064E-01  1.8343420556828E+00
137  1.3600000000000E+00 -9.8296842655423E-02 -3.0611162094044E-01  1.8164652543614E+00
138  1.3700000000000E+00 -8.1637648470758E-02 -3.4227165789842E-01  1.7922223704460E+00
139  1.3800000000000E+00 -6.6100603689189E-02 -3.7412772097947E-01  1.7617644652751E+00
140  1.3900000000000E+00 -5.1708557906939E-02 -4.0172526849440E-01  1.7252937733088E+00
141  1.4000000000000E+00 -3.8472618669871E-02 -4.2513829648747E-01  1.6830602746193E+00
142  1.4100000000000E+00 -2.6392870125511E-02 -4.4446749817558E-01  1.6353585245509E+00
143  1.4200000000000E+00 -1.5459165881070E-02 -4.5983822950803E-01  1.5825240357785E+00
144  1.4300000000000E+00 -5.6519807086116E-03 -4.7139831928885E-01  1.5249293544349E+00
145  1.4400000000000E+00  3.0566919523622E-03 -4.7931575398670E-01  1.4629798762209E+00
146  1.4500000000000E+00  1.0702409796772E-02 -4.8377626785629E-01  1.3971094517509E+00
147  1.4600000000000E+00  1.7327331663930E-02 -4.8498086883686E-01  1.3277758308862E+00
148  1.4700000000000E+00  2.2979260322276E-02 -4.8314333025364E-01  1.2554559963451E+00
149  1.4800000000000E+00  2.7710690093038E-02 -4.7848767752126E-01  1.1806414366469E+00
150  1.4900000000000E+00  3.1577870707217E-02 -4.7124569780349E-01  1.1038334072854E+00
151  1.5000000000000E+00  3.4639898028004E-02 -4.6165449916718E-01  1.0255382280682E+00
152  1.5100000000000E+00  3.6957841351365E-02 -4.4995414391872E-01  9.4626266231239E-01
153  1.5200000000000E+00  3.8593916009327E-02 -4.3638537883104E-01  8.6650942151303E-01
154  1.5300000000000E+00  3.9610708901062E-02 -4.2118748266742E-01  7.8677283608256E-01
155  1.5400000000000E+00  4.0070463455557E-02 -4.0459624907483E-01  7.0753473000195E-01
156  1.5500000000000E+00  4.0034429308318E-02 -3.8684212026649E-01  6.2926053337710E-01
157  1.5600000000000E+00  3.9562280778152E-02 -3.6814848433299E-01  5.5239566349055E-01
158  1.5700000000000E+00  3.8711607009022E-02 -3.4873014632558E-01  4.7736220104672E-01
159  1.5800000000000E+00  3.7537475401145E-02 -3.2879198044538E-01  4.0455588392287E-01
160  1.5900000000000E+00  3.6092068818076E-02 -3.0852776812292E-01  3.3434343711750E-01
161  1.6000000000000E+00  3.4424395875689E-02 -2.8811922399807E-01  2.6706025288454E-01
162  1.6100000000000E+00  3.2580072586645E-02 -2.6773520940730E-01  2.0300843132590E-01
163  1.6200000000000E+00  3.0601172591022E-02 -2.4753113043867E-01  1.4245518712783E-01
164  1.6300000000000E+00  2.8526142345005E-02 -2.2764851552318E-01  8.5631624632704E-02
165  1.6400000000000E+00  2.6389776807920E-02 -2.0821476539709E-01  3.2731879339882E-02
166  1.6500000000000E+00  2.4223250438028E-02 -1.8934306632656E-01 -1.6087379979915E-02
167  1.6600000000000E+00  2.2054197689432E-02 -1.7113245575501E-01 -6.0707098090607E-02
168  1.6700000000000E+00  1.9906837227159E-02 -1.5366802960050E-01 -1.0104563741873E-01
169  1.6800000000000E+00  1.7802132443756E-02 -1.3702127541887E-01 -1.3705826224547E-01
170  1.6900000000000E+00  1.5757982518265E-02 -1.2125052035820E-01 -1.6873631172616E-01
171  1.7000000000000E+00  1.3789436500706E-02 -1.0640147721703E-01 -1.9610608751707E-01
172  1.7100000000000E+00  1.1908923882458E-02 -9.2507874374142E-02 -2.1922747534993E-01
173  1.7200000000000E+00  1.0126494922524E-02 -7.9592154227534E-02 -2.3819232445679E-01
174  1.7300000000000E+00  8.4500643566875E-03 -6.7666225192008E-02 -2.5312260914827E-01
175  1.7400000000000E+00  6.8856524345516E-03 -5.6732252529770E-02 -2.6416839809489E-01
176  1.7500000000000E+00  5.4376176843700E-03 -4.6783473856684E-02 -2.7150565739500E-01
177  1.7600000000000E+00  4.1088763788801E-03 -3.7805026028478E-02 -2.7533391348746E-01
178  1.7700000000000E+00  2.9011042111367E-03 -2.9774770841979E-02 -2.7587380241033E-01
179  1.7800000000000E+00  1.8149164166498E-03 -2.2664108244647E-02 -2.7336453109273E-01
180  1.7900000000000E+00  8.5002320034624E-04 -1.6438766705640E-02 -2.6806127636369E-01
181  1.8000000000000E+00  5.3581298668508E-06 -1.1059561884718E-02 -2.6023254604205E-01
182  1.8100000000000E+00 -7.2082214860437E-04 -6.4831159364698E-03 -2.5015752582939E-01
183  1.8200000000000E+00 -1.3308677798520E-03 -2.6625311436101E-03 -2.3812343460781E-01
184  1.8300000000000E+00 -1.8276953000860E-03  4.5198695212655E-04 -2.2442290923289E-01
185  1.8400000000000E+00 -2.2147764250085E-03  2.9125604243915E-03 -2.0935143860794E-01
186  1.8500000000000E+00 -2.4961548454604E-03  4.7731260915606E-03 -1.9320486550889E-01
187  1.8600000000000E+00 -2.6764892029943E-03  6.0889797956491E-03 -1.7627697287552E-01
188  1.8700000000000E+00 -2.7611160345892E-03  6.9163698471049E-03 -1.5885716053360E-01
189  1.8800000000000E+00 -2.7561533944803E-03  7.3121857280656E-03 -1.4122828273756E-01
190  1.8900000000000E+00 -2.6686261035213E-03  7.3337078787202E-03 -1.2366462041569E-01
191  1.9000000000000E+00 -2.5063257773872E-03  7.0378473019176E-03 -1.0642931980211E-01
192  1.9100000000000E+00 -2.2805798898505E-03  6.4862529187050E-03 -8.9778934132520E-02
193  1.9200000000000E+00 -2.0235079821249E-03  5.7796517924999E-03 -7.4003000272808E-02
194  1.9300000000000E+00 -1.7539987492198E-03  4.9890311434922E-03 -5.9340480526011E-02
195  1.9400000000000E+00 -1.4715848743061E-03  4.1428858623788E-03 -4.5963286295173E-02
196  1.9500000000000E+00 -1.1820013960590E-03  3.2782600780512E-03 -3.4036158071801E-02
197  1.9600000000000E+00 -8.9365961074902E-04  2.4334060737096E-03 -2.3706965235169E-02
198  1.9700000000000E+00 -6.1829823178366E-04  1.6488686803741E-03 -1.5107209971163E-02
199  1.9800000000000E+00 -3.7128381521254E-04  9.6798732269927E-04 -8.3548127315469E-03
200  1.9900000000000E+00 -1.6943091314716E-04  4.3153368254612E-04 -3.5161125224218E-03
201  2.0000000000000E+00 -4.1572938847786E-05  1.0317008556453E-04 -7.8879281687546E-04
202  2.0100000000000E+00  2.2371960369622E-06 -5.5610375168661E-06  4.5169141396390E-05
203  2.0200000000000E+00  3.0999096981676E-07 -7.5188892534164E-07  5.5235992443956E-06
204  2.03 -0.  0. -0.
205  2.04  0. -0.  0.
206  2.05  0. -0.  0.
207  2.06  0.  0.  0.
208  2.07  0.  0.  0.
209  2.08  0.  0.  0.
210  2.09  0.  0.  0.
211  2.10  0.  0.  0.
212  2.11  0.  0.  0.
213  2.12  0.  0.  0.
214  2.13  0.  0.  0.
215  2.14  0.  0.  0.
216  2.15  0.  0.  0.
217  2.16  0.  0.  0.
218  2.17  0.  0.  0.
219  2.18  0.  0.  0.
220  2.19  0.  0.  0.
221  2.20  0.  0.  0.
222  2.21  0.  0.  0.
223  2.22  0.  0.  0.
224  2.23  0.  0.  0.
225  2.24  0.  0.  0.
226  2.25  0.  0.  0.
227  2.26  0.  0.  0.
228  2.27  0.  0.  0.
229  2.28  0.  0.  0.
230  2.29  0.  0.  0.
231  2.30  0.  0.  0.
232  2.31  0.  0.  0.
233  2.32  0.  0.  0.
234  2.33  0.  0.  0.
235  2.34  0.  0.  0.
236  2.35  0.  0.  0.
237  2.36  0.  0.  0.
238  2.37  0.  0.  0.
239  2.38  0.  0.  0.
240  2.39  0.  0.  0.
241  2.40  0.  0.  0.
242  2.41  0.  0.  0.
243  2.42  0.  0.  0.
244  2.43  0.  0.  0.
245  2.44  0.  0.  0.
246  2.45  0.  0.  0.
247  2.46  0.  0.  0.
248  2.47  0.  0.  0.
249  2.48  0.  0.  0.
250  2.49  0.  0.  0.
251  2.50  0.  0.  0.
252  2.51  0.  0.  0.
253  2.52  0.  0.  0.
254  2.53  0.  0.  0.
255  2.54  0.  0.  0.
256  2.55  0.  0.  0.
257  2.56  0.  0.  0.
258  2.57  0.  0.  0.
259  2.58  0.  0.  0.
260  2.59  0.  0.  0.
261  2.60  0.  0.  0.
262  2.61  0.  0.  0.
263  2.62  0.  0.  0.
264  2.63  0.  0.  0.
265  2.64  0.  0.  0.
266  2.65  0.  0.  0.
267  2.66  0.  0.  0.
268  2.67  0.  0.  0.
269  2.68  0.  0.  0.
270  2.69  0.  0.  0.
271  2.70  0.  0.  0.
272  2.71  0.  0.  0.
273  2.72  0.  0.  0.
274  2.73  0.  0.  0.
275  2.74  0.  0.  0.
276  2.75  0.  0.  0.
277  2.76  0.  0.  0.
278  2.77  0.  0.  0.
279  2.78  0.  0.  0.
280  2.79  0.  0.  0.
281  2.80  0.  0.  0.
282  2.81  0.  0.  0.
283  2.82  0.  0.  0.
284  2.83  0.  0.  0.
285  2.84  0.  0.  0.
286  2.85  0.  0.  0.
287  2.86  0.  0.  0.
288  2.87  0.  0.  0.
289  2.88  0.  0.  0.
290  2.89  0.  0.  0.
291  2.90  0.  0.  0.
292  2.91  0.  0.  0.
293  2.92  0.  0.  0.
294  2.93  0.  0.  0.
295  2.94  0.  0.  0.
296  2.95  0.  0.  0.
297  2.96  0.  0.  0.
298  2.97  0.  0.  0.
299  2.98  0.  0.  0.
300  2.99  0.  0.  0.
301  3.00  0.  0.  0.
302  3.01  0.  0.  0.
303  3.02  0.  0.  0.
304  3.03  0.  0.  0.
305  3.04  0.  0.  0.
306  3.05  0.  0.  0.
307  3.06  0.  0.  0.
308  3.07  0.  0.  0.
309  3.08  0.  0.  0.
310  3.09  0.  0.  0.
311  3.10  0.  0.  0.
312  3.11  0.  0.  0.
313  3.12  0.  0.  0.
314  3.13  0.  0.  0.
315  3.14  0.  0.  0.
316  3.15  0.  0.  0.
317  3.16  0.  0.  0.
318  3.17  0.  0.  0.
319  3.18  0.  0.  0.
320  3.19  0.  0.  0.
321  3.20  0.  0.  0.
322  3.21  0.  0.  0.
323  3.22  0.  0.  0.
324  3.23  0.  0.  0.
325  3.24  0.  0.  0.
326  3.25  0.  0.  0.
327  3.26  0.  0.  0.
328  3.27  0.  0.  0.
329  3.28  0.  0.  0.
330  3.29  0.  0.  0.
331  3.30  0.  0.  0.
332  3.31  0.  0.  0.
333  3.32  0.  0.  0.
334  3.33  0.  0.  0.
335  3.34  0.  0.  0.
336  3.35  0.  0.  0.
337  3.36  0.  0.  0.
338  3.37  0.  0.  0.
339  3.38  0.  0.  0.
340  3.39  0.  0.  0.
341  3.40  0.  0.  0.
342  3.41  0.  0.  0.
343  3.42  0.  0.  0.
344  3.43  0.  0.  0.
345  3.44  0.  0.  0.
346  3.45  0.  0.  0.
347  3.46  0.  0.  0.
348  3.47  0.  0.  0.
349  3.48  0.  0.  0.
350  3.49  0.  0.  0.
351  3.50  0.  0.  0.
352  3.51  0.  0.  0.
353  3.52  0.  0.  0.
354  3.53  0.  0.  0.
355  3.54  0.  0.  0.
356  3.55  0.  0.  0.
357  3.56  0.  0.  0.
358  3.57  0.  0.  0.
359  3.58  0.  0.  0.
360  3.59  0.  0.  0.
361  3.60  0.  0.  0.
362  3.61  0.  0.  0.
363  3.62  0.  0.  0.
364  3.63  0.  0.  0.
365  3.64  0.  0.  0.
366  3.65  0.  0.  0.
367  3.66  0.  0.  0.
368  3.67  0.  0.  0.
369  3.68  0.  0.  0.
370  3.69  0.  0.  0.
371  3.70  0.  0.  0.
372  3.71  0.  0.  0.
373  3.72  0.  0.  0.
374  3.73  0.  0.  0.
375  3.74  0.  0.  0.
376  3.75  0.  0.  0.
377  3.76  0.  0.  0.
378  3.77  0.  0.  0.
379  3.78  0.  0.  0.
380  3.79  0.  0.  0.
381  3.80  0.  0.  0.
382  3.81  0.  0.  0.
383  3.82  0.  0.  0.
384  3.83  0.  0.  0.
385  3.84  0.  0.  0.
386  3.85  0.  0.  0.
387  3.86  0.  0.  0.
388  3.87  0.  0.  0.
389  3.88  0.  0.  0.
390  3.89  0.  0.  0.
391  3.90  0.  0.  0.
392  3.91  0.  0.  0.
393  3.92  0.  0.  0.
394  3.93  0.  0.  0.
395  3.94  0.  0.  0.
396  3.95  0.  0.  0.
397  3.96  0.  0.  0.
398  3.97  0.  0.  0.
399  3.98  0.  0.  0.
400  3.99  0.  0.  0.
401  4.00  0.  0.  0.
402  4.01  0.  0.  0.
403  4.02  0.  0.  0.
404  4.03  0.  0.  0.
405  4.04  0.  0.  0.
406  4.05  0.  0.  0.
407  4.06  0.  0.  0.
408  4.07  0.  0.  0.
409  4.08  0.  0.  0.
410  4.09  0.  0.  0.
411  4.10  0.  0.  0.
412  4.11  0.  0.  0.
413  4.12  0.  0.  0.
414  4.13  0.  0.  0.
415  4.14  0.  0.  0.
416  4.15  0.  0.  0.
417  4.16  0.  0.  0.
418  4.17  0.  0.  0.
419  4.18  0.  0.  0.
420  4.19  0.  0.  0.
421  4.20  0.  0.  0.
422  4.21  0.  0.  0.
423  4.22  0.  0.  0.
424  4.23  0.  0.  0.
425  4.24  0.  0.  0.
426  4.25  0.  0.  0.
427  4.26  0.  0.  0.
428  4.27  0.  0.  0.
429  4.28  0.  0.  0.
430  4.29  0.  0.  0.
431  4.30  0.  0.  0.
432  4.31  0.  0.  0.
433  4.32  0.  0.  0.
434  4.33  0.  0.  0.
435  4.34  0.  0.  0.
436  4.35  0.  0.  0.
437  4.36  0.  0.  0.
438  4.37  0.  0.  0.
439  4.38  0.  0.  0.
440  4.39  0.  0.  0.
441  4.40  0.  0.  0.
442  4.41  0.  0.  0.
443  4.42  0.  0.  0.
444  4.43  0.  0.  0.
445  4.44  0.  0.  0.
446  4.45  0.  0.  0.
447  4.46  0.  0.  0.
448  4.47  0.  0.  0.
449  4.48  0.  0.  0.
450  4.49  0.  0.  0.
451  4.50  0.  0.  0.
452  4.51  0.  0.  0.
453  4.52  0.  0.  0.
454  4.53  0.  0.  0.
455  4.54  0.  0.  0.
456  4.55  0.  0.  0.
457  4.56  0.  0.  0.
458  4.57  0.  0.  0.
459  4.58  0.  0.  0.
460  4.59  0.  0.  0.
461  4.60  0.  0.  0.
462  4.61  0.  0.  0.
463  4.62  0.  0.  0.
464  4.63  0.  0.  0.
465  4.64  0.  0.  0.
466  4.65  0.  0.  0.
467  4.66  0.  0.  0.
468  4.67  0.  0.  0.
469  4.68  0.  0.  0.
470  4.69  0.  0.  0.
471  4.70  0.  0.  0.
472  4.71  0.  0.  0.
473  4.72  0.  0.  0.
474  4.73  0.  0.  0.
475  4.74  0.  0.  0.
476  4.75  0.  0.  0.
477  4.76  0.  0.  0.
478  4.77  0.  0.  0.
479  4.78  0.  0.  0.
480  4.79  0.  0.  0.
481  4.80  0.  0.  0.
482  4.81  0.  0.  0.
483  4.82  0.  0.  0.
484  4.83  0.  0.  0.
485  4.84  0.  0.  0.
486  4.85  0.  0.  0.
487  4.86  0.  0.  0.
488  4.87  0.  0.  0.
489  4.88  0.  0.  0.
490  4.89  0.  0.  0.
491  4.90  0.  0.  0.
492  4.91  0.  0.  0.
493  4.92  0.  0.  0.
494  4.93  0.  0.  0.
495  4.94  0.  0.  0.
496  4.95  0.  0.  0.
497  4.96  0.  0.  0.
498  4.97  0.  0.  0.
499  4.98  0.  0.  0.
500  4.99  0.  0.  0.
501  5.00  0.  0.  0.
502  5.01  0.  0.  0.
503  5.02  0.  0.  0.
504  5.03  0.  0.  0.
505  5.04  0.  0.  0.
506  5.05  0.  0.  0.
507  5.06  0.  0.  0.
508  5.07  0.  0.  0.
509  5.08  0.  0.  0.
510  5.09  0.  0.  0.
511  5.10  0.  0.  0.
512  5.11  0.  0.  0.
513  5.12  0.  0.  0.
514  5.13  0.  0.  0.
515  5.14  0.  0.  0.
516  5.15  0.  0.  0.
517  5.16  0.  0.  0.
518  5.17  0.  0.  0.
519  5.18  0.  0.  0.
520  5.19  0.  0.  0.
521  5.20  0.  0.  0.
522  5.21  0.  0.  0.
523  5.22  0.  0.  0.
524  5.23  0.  0.  0.
525  5.24  0.  0.  0.
526  5.25  0.  0.  0.
527  5.26  0.  0.  0.
528  5.27  0.  0.  0.
529  5.28  0.  0.  0.
530  5.29  0.  0.  0.
531  5.30  0.  0.  0.
532  5.31  0.  0.  0.
533  5.32  0.  0.  0.
534  5.33  0.  0.  0.
535  5.34  0.  0.  0.
536  5.35  0.  0.  0.
537  5.36  0.  0.  0.
538  5.37  0.  0.  0.
539  5.38  0.  0.  0.
540  5.39  0.  0.  0.
541  5.40  0.  0.  0.
542  5.41  0.  0.  0.
543  5.42  0.  0.  0.
544  5.43  0.  0.  0.
545  5.44  0.  0.  0.
546  5.45  0.  0.  0.
547  5.46  0.  0.  0.
548  5.47  0.  0.  0.
549  5.48  0.  0.  0.
550  5.49  0.  0.  0.
551  5.50  0.  0.  0.
552  5.51  0.  0.  0.
553  5.52  0.  0.  0.
554  5.53  0.  0.  0.
555  5.54  0.  0.  0.
556  5.55  0.  0.  0.
557  5.56  0.  0.  0.
558  5.57  0.  0.  0.
559  5.58  0.  0.  0.
560  5.59  0.  0.  0.
561  5.60  0.  0.  0.
562  5.61  0.  0.  0.
563  5.62  0.  0.  0.
564  5.63  0.  0.  0.
565  5.64  0.  0.  0.
566  5.65  0.  0.  0.
567  5.66  0.  0.  0.
568  5.67  0.  0.  0.
569  5.68  0.  0.  0.
570  5.69  0.  0.  0.
571  5.70  0.  0.  0.
572  5.71  0.  0.  0.
573  5.72  0.  0.  0.
574  5.73  0.  0.  0.
575  5.74  0.  0.  0.
576  5.75  0.  0.  0.
577  5.76  0.  0.  0.
578  5.77  0.  0.  0.
579  5.78  0.  0.  0.
580  5.79  0.  0.  0.
581  5.80  0.  0.  0.
582  5.81  0.  0.  0.
583  5.82  0.  0.  0.
584  5.83  0.  0.  0.
585  5.84  0.  0.  0.
586  5.85  0.  0.  0.
587  5.86  0.  0.  0.
588  5.87  0.  0.  0.
589  5.88  0.  0.  0.
590  5.89  0.  0.  0.
591  5.90  0.  0.  0.
592  5.91  0.  0.  0.
593  5.92  0.  0.  0.
594  5.93  0.  0.  0.
595  5.94  0.  0.  0.
596  5.95  0.  0.  0.
597  5.96  0.  0.  0.
598  5.97  0.  0.  0.
599  5.98  0.  0.  0.
600  5.99  0.  0.  0.
1                         6.7971114472425E+00  6.8966263169772E-01
1  0.0000000000000E+00  5.5581347996325E-09 -2.3240780799849E-08
2  1.0000000000000E-02  1.3027069037870E-03 -2.3283428988982E-03
3  2.0000000000000E-02  5.1997859375168E-03 -9.2720027339117E-03
4  3.0000000000000E-02  1.1658289848724E-02 -2.0707621204113E-02
5  4.0000000000000E-02  2.0623895911720E-02 -3.6432081920842E-02
6  5.0000000000000E-02  3.2021778690018E-02 -5.6166184563381E-02
7  6.0000000000000E-02  4.5757809554344E-02 -7.9559695530885E-02
8  7.0000000000000E-02  6.1720061095164E-02 -1.0619768391779E-01
9  8.0000000000000E-02  7.9780589010545E-02 -1.3560802839916E-01
10  9.0000000000000E-02  9.9797458991056E-02 -1.6726995941040E-01
11  1.0000000000000E-01  1.2161698165566E-01 -2.0062348222097E-01
12  1.1000000000000E-01  1.4507611479825E-01 -2.3507951047155E-01
13  1.2000000000000E-01  1.7000498915317E-01 -2.7003052675649E-01
14  1.3000000000000E-01  1.9622951163676E-01 -3.0486157712313E-01
15  1.4000000000000E-01  2.2357399861221E-01 -3.3896140010448E-01
16  1.5000000000000E-01  2.5186379118473E-01 -3.7173348821715E-01
17  1.6000000000000E-01  2.8092780487397E-01 -4.0260688079735E-01
18  1.7000000000000E-01  3.1060096722657E-01 -4.3104649160141E-01
19  1.8000000000000E-01  3.4072649900409E-01 -4.5656278269072E-01
20  1.9000000000000E-01  3.7115799747291E-01 -4.7872060761583E-01
21  2.0000000000000E-01  4.0176128398449E-01 -4.9714706161199E-01
22  2.1000000000000E-01  4.3241598240006E-01 -5.1153819416423E-01
23  2.2000000000000E-01  4.6301679990605E-01 -5.2166445958440E-01
24  2.3000000000000E-01  4.9347448729702E-01 -5.2737480381021E-01
25  2.4000000000000E-01  5.2371646177031E-01 -5.2859931008868E-01
26  2.5000000000000E-01  5.5368708157469E-01 -5.2535035211114E-01
27  2.6000000000000E-01  5.8334756836960E-01 -5.1772223006504E-01
28  2.7000000000000E-01  6.1267557976256E-01 -5.0588929247864E-01
29  2.8000000000000E-01  6.4166444108068E-01 -4.9010257417107E-01
30  2.9000000000000E-01  6.7032205187540E-01 -4.7068500758765E-01
31  3.0000000000000E-01  6.9866948884033E-01 -4.4802529081586E-01
32  3.1000000000000E-01  7.2673933262392E-01 -4.2257052016949E-01
33  3.2000000000000E-01  7.5457375133490E-01 -3.9481771795132E-01
34  3.3000000000000E-01  7.8222237826808E-01 -3.6530440644361E-01
35  3.4000000000000E-01  8.0974002543133E-01 -3.3459839695478E-01
36  3.5000000000000E-01  8.3718427775403E-01 -3.0328697754108E-01
37  3.6000000000000E-01  8.6461301533725E-01 -2.7196569454594E-01
38  3.7000000000000E-01  8.9208191271782E-01 -2.4122693113803E-01
39  3.8000000000000E-01  9.1964196482617E-01 -2.1164849042308E-01
40  3.9000000000000E-01  9.4733708910503E-01 -1.8378239136149E-01
41  4.0000000000000E-01  9.7520185211994E-01 -1.5814408261722E-01
42  4.1000000000000E-01  1.0032593669499E+00 -1.3520227263504E-01
43  4.2000000000000E-01  1.0315194047291E+00 -1.1536956380055E-01
44  4.3000000000000E-01  1.0599767599671E+00 -9.8994064657650E-02
45  4.4000000000000E-01  1.0886099047702E+00 -8.6352137075590E-02
46  4.5000000000000E-01  1.1173799618996E+00 -7.7642415272194E-02