Tb    ONCVPSP-4.0.1  r_core=   2.00838   1.60001   1.90311   1.35326
65.0000     19.0000      241015    zatom,zion,pspd
8      11   3     4   600     0    pspcod,pspxc,lmax,lloc,mmax,r2well
5.99000000  4.00000000  0.00000000    rchrg fchrg qchrg
3     2     2     2     0    nproj
1     1           extension_switch
0                         1.2597955968776E+01  2.9533744738037E+00  5.7646658248704E-01
1  0.0000000000000E+00 -9.7768437790080E-10  2.1616166634431E-09 -3.1346654716380E-09
2  1.0000000000000E-02  5.6696968400420E-02 -3.1050444118914E-02  4.8571240859510E-02
3  2.0000000000000E-02  1.1320959658500E-01 -6.1750492937773E-02  9.6621151785323E-02
4  3.0000000000000E-02  1.6935530185289E-01 -9.1753770421890E-02  1.4363448901087E-01
5  4.0000000000000E-02  2.2495499535747E-01 -1.2072189121942E-01  1.8910811020583E-01
6  5.0000000000000E-02  2.7983477634544E-01 -1.4832833693875E-01  2.3255684875464E-01
7  6.0000000000000E-02  3.3382756387167E-01 -1.7426219109899E-01  2.7351917855387E-01
8  7.0000000000000E-02  3.8677464630865E-01 -1.9823168820926E-01  3.1156260321952E-01
9  8.0000000000000E-02  4.3852712994724E-01 -2.1996753459426E-01  3.4628870672965E-01
10  9.0000000000000E-02  4.8894726918683E-01 -2.3922596124093E-01  3.7733780638363E-01
11  1.0000000000000E-01  5.3790966222387E-01 -2.5579147206263E-01  4.0439315348905E-01
12  1.1000000000000E-01  5.8530229775409E-01 -2.6947925453227E-01  4.2718463235082E-01
13  1.2000000000000E-01  6.3102743998364E-01 -2.8013722357876E-01  4.4549191386603E-01
14  1.3000000000000E-01  6.7500234118196E-01 -2.8764767393494E-01  4.5914702627277E-01
15  1.4000000000000E-01  7.1715977307897E-01 -2.9192852071479E-01  4.6803631228195E-01
16  1.5000000000000E-01  7.5744837058870E-01 -2.9293411283671E-01  4.7210174887124E-01
17  1.6000000000000E-01  7.9583278360636E-01 -2.9065560894150E-01  4.7134161336087E-01
18  1.7000000000000E-01  8.3229363494822E-01 -2.8512091061968E-01  4.6581048693681E-01
19  1.8000000000000E-01  8.6682728485843E-01 -2.7639415300799E-01  4.5561859445994E-01
20  1.9000000000000E-01  8.9944540486519E-01 -2.6457475807531E-01  4.4093048710837E-01
21  2.0000000000000E-01  9.3017436610395E-01 -2.4979606113742E-01  4.2196308206368E-01
22  2.1000000000000E-01  9.5905444950809E-01 -2.3222352625103E-01  3.9898308097371E-01
23  2.2000000000000E-01  9.8613888747424E-01 -2.1205257109173E-01  3.7230379623471E-01
24  2.3000000000000E-01  1.0114927487085E+00 -1.8950602664596E-01  3.4228142113081E-01
25  2.4000000000000E-01  1.0351916799316E+00 -1.6483126150089E-01  3.0931078648625E-01
26  2.5000000000000E-01  1.0573205199346E+00 -1.3829700463461E-01  2.7382065263338E-01
27  2.6000000000000E-01  1.0779718031192E+00 -1.1018990435100E-01  2.3626859111626E-01
28  2.7000000000000E-01  1.0972441710942E+00 -8.0810864314411E-02  1.9713551555761E-01
29  2.8000000000000E-01  1.1152407121273E+00 -5.0471200486618E-02  1.5691992546468E-01
30  2.9000000000000E-01  1.1320672492431E+00 -1.9488665108267E-02  1.1613193037587E-01
31  3.0000000000000E-01  1.1478305985066E+00  1.1816614327724E-02  7.5287124610143E-02
32  3.1000000000000E-01  1.1626368195179E+00  4.3126231916132E-02  3.4900384942321E-02
33  3.2000000000000E-01  1.1765894803751E+00  7.4127586132241E-02 -4.5203352498058E-03
34  3.3000000000000E-01  1.1897879593103E+00  1.0451789864166E-01 -4.2480141449125E-02
35  3.4000000000000E-01  1.2023258048971E+00  1.3400811970859E-01 -7.8503189644741E-02
36  3.5000000000000E-01  1.2142891761337E+00  1.6232667190063E-01 -1.1213846209002E-01
37  3.6000000000000E-01  1.2257553828623E+00  1.8922298548767E-01 -1.4296525731467E-01
38  3.7000000000000E-01  1.2367915458736E+00  2.1447078120049E-01 -1.7059832757763E-01
39  3.8000000000000E-01  1.2474533946935E+00  2.3787105883443E-01 -1.9469260080599E-01
40  3.9000000000000E-01  1.2577842194640E+00  2.5925475351639E-01 -2.1494742868473E-01
41  4.0000000000000E-01  1.2678139915281E+00  2.7848502527345E-01 -2.3111030790898E-01
42  4.1000000000000E-01  1.2775586653383E+00  2.9545915179588E-01 -2.4298002761281E-01
43  4.2000000000000E-01  1.2870196721377E+00  3.1010999894058E-01 -2.5040920259601E-01
44  4.3000000000000E-01  1.2961836135518E+00  3.2240704850760E-01 -2.5330615909470E-01
45  4.4000000000000E-01  1.3050221607967E+00  3.3235696809604E-01 -2.5163614741668E-01
46  4.5000000000000E-01  1.3134921626834E+00  3.4000371333491E-01 -2.4542186368794E-01
47  4.6000000000000E-01  1.3215359630141E+00  3.4542815843247E-01 -2.3474327115467E-01
48  4.7000000000000E-01  1.3290819253558E+00  3.4874725671841E-01 -2.1973671984502E-01
49  4.8000000000000E-01  1.3360451605613E+00  3.5011273860618E-01 -2.0059337183297E-01
50  4.9000000000000E-01  1.3423284498364E+00  3.4970936009969E-01 -1.7755694774933E-01
51  5.0000000000000E-01  1.3478233536478E+00  3.4775272054109E-01 -1.5092081845490E-01
52  5.1000000000000E-01  1.3524114943563E+00  3.4448667367874E-01 -1.2102447383172E-01
53  5.2000000000000E-01  1.3559659981901E+00  3.4018036125132E-01 -8.8249408351966E-02
54  5.3000000000000E-01  1.3583530800613E+00  3.3512490307326E-01 -5.3014470357835E-02
55  5.4000000000000E-01  1.3594337528029E+00  3.2962978201107E-01 -1.5770728745079E-02
56  5.5000000000000E-01  1.3590656407060E+00  3.2401896618469E-01  2.3004083122295E-02
57  5.6000000000000E-01  1.3571048757622E+00  3.1862681418719E-01  6.2811480970746E-02
58  5.7000000000000E-01  1.3534080538197E+00  3.1379381201032E-01  1.0313843067056E-01
59  5.8000000000000E-01  1.3478342269325E+00  3.0986219268167E-01  1.4346376292755E-01
60  5.9000000000000E-01  1.3402469075483E+00  3.0717149130735E-01  1.8326472476924E-01
61  6.0000000000000E-01  1.3305160598551E+00  3.0605408925531E-01  2.2202358891421E-01
62  6.1000000000000E-01  1.3185200535865E+00  3.0683080159191E-01  2.5923424099675E-01
63  6.2000000000000E-01  1.3041475558816E+00  3.0980656158378E-01  2.9440866448133E-01
64  6.3000000000000E-01  1.2872993374021E+00  3.1526625510512E-01  3.2708324394119E-01
65  6.4000000000000E-01  1.2678899698261E+00  3.2347075614569E-01  3.5682480920199E-01
66  6.5000000000000E-01  1.2458493930450E+00  3.3465321233012E-01  3.8323634562515E-01
67  6.6000000000000E-01  1.2211243318897E+00  3.4901562644278E-01  4.0596229952500E-01
68  6.7000000000000E-01  1.1936795439674E+00  3.6672577645431E-01  4.2469341231219E-01
69  6.8000000000000E-01  1.1634988821976E+00  3.8791451250379E-01  4.3917102238980E-01
70  6.9000000000000E-01  1.1305861578562E+00  4.1267346475013E-01  4.4919078003931E-01
71  7.0000000000000E-01  1.0949657923519E+00  4.4105319103543E-01  4.5460572743078E-01
72  7.1000000000000E-01  1.0566832485293E+00  4.7306178796251E-01  4.5532870339574E-01
73  7.2000000000000E-01  1.0158052349908E+00  5.0866398333918E-01  4.5133404063290E-01
74  7.3000000000000E-01  9.7241967971839E-01  5.4778072207765E-01  4.4265853144324E-01
75  7.4000000000000E-01  9.2663547211107E-01  5.9028925161728E-01  4.2940164683823E-01
76  7.5000000000000E-01  8.7858197540986E-01  6.3602370685356E-01  4.1172500280094E-01
77  7.6000000000000E-01  8.2840831430636E-01  6.8477618848730E-01  3.8985107649700E-01
78  7.7000000000000E-01  7.7628244529343E-01  7.3629832273534E-01  3.6406118421413E-01
79  7.8000000000000E-01  7.2239001997610E-01  7.9030328454850E-01  3.3469274164297E-01
80  7.9000000000000E-01  6.6693305407897E-01  8.4646826094681E-01  3.0213583567895E-01
81  8.0000000000000E-01  6.1012841723124E-01  9.0443732587415E-01  2.6682914512582E-01
82  8.1000000000000E-01  5.5220616074532E-01  9.6382469317444E-01  2.2925525540059E-01
83  8.2000000000000E-01  4.9340770250281E-01  1.0242183099543E+00  1.8993541949218E-01
84  8.3000000000000E-01  4.3398388969457E-01  1.0851837487870E+00  1.4942382391693E-01
85  8.4000000000000E-01  3.7419296150649E-01  1.1462683539744E+00  1.0830142416961E-01
86  8.5000000000000E-01  3.1429843488276E-01  1.2070055944642E+00  6.7169419119962E-02
87  8.6000000000000E-01  2.5456693721681E-01  1.2669195740423E+00  2.6642437896654E-02
88  8.7000000000000E-01  1.9526601021432E-01  1.3255296481088E+00 -1.2658483994447E-02
89  8.8000000000000E-01  1.3666190922893E-01  1.3823550957185E+00 -5.0113060309031E-02
90  8.9000000000000E-01  7.9017422102628E-02  1.4369197956059E+00 -8.5108961108246E-02
91  9.0000000000000E-01  2.2589730948045E-02  1.4887568556229E+00 -1.1704899045788E-01
92  9.1000000000000E-01 -3.2371660596433E-02  1.5374131463686E+00 -1.4535815455485E-01
93  9.2000000000000E-01 -8.5626913305777E-02  1.5824536917426E+00 -1.6949054145779E-01
94  9.3000000000000E-01 -1.3694773164002E-01  1.6234658716770E+00 -1.8893593585762E-01
95  9.4000000000000E-01 -1.8611911819946E-01  1.6600633953278E+00 -2.0322609536290E-01
96  9.5000000000000E-01 -2.3294098714368E-01  1.6918900064909E+00 -2.1194061855351E-01
97  9.6000000000000E-01 -2.7722962245669E-01  1.7186228868584E+00 -2.1471233946730E-01
98  9.7000000000000E-01 -3.1881896918521E-01  1.7399757268959E+00 -2.1123218817213E-01
99  9.8000000000000E-01 -3.5756174811841E-01  1.7557014384998E+00 -2.0125346253687E-01
100  9.9000000000000E-01 -3.9333038677390E-01  1.7655944881165E+00 -1.8459546216017E-01
101  1.0000000000000E+00 -4.2601776196253E-01  1.7694928335722E+00 -1.6114644155280E-01
102  1.0100000000000E+00 -4.5553775157881E-01  1.7672794524019E+00 -1.3086584600843E-01
103  1.0200000000000E+00 -4.8182559556224E-01  1.7588834538827E+00 -9.3785800052051E-02
104  1.0300000000000E+00 -5.0483806815254E-01  1.7442807711998E+00 -5.0011824844948E-02
105  1.0400000000000E+00 -5.2455346558084E-01  1.7234944341187E+00  2.7723261885455E-04
106  1.0500000000000E+00 -5.4097141516310E-01  1.6965944261544E+00  5.6830069313596E-02
107  1.0600000000000E+00 -5.5411251335850E-01  1.6636971334460E+00  1.1932459951603E-01
108  1.0700000000000E+00 -5.6401780169300E-01  1.6249643953275E+00  1.8737043010976E-01
109  1.0800000000000E+00 -5.7074809051723E-01  1.5806021689142E+00  2.6051213030217E-01
110  1.0900000000000E+00 -5.7438314133914E-01  1.5308588218611E+00  3.3823328233665E-01
111  1.1000000000000E+00 -5.7502071895257E-01  1.4760230688329E+00  4.1996129394230E-01
112  1.1100000000000E+00 -5.7277552476802E-01  1.4164215681525E+00  5.0507294737981E-01
113  1.1200000000000E+00 -5.6777802265832E-01  1.3524161956381E+00  5.9290065388615E-01
114  1.1300000000000E+00 -5.6017316827833E-01  1.2844010128513E+00  6.8273937590950E-01
115  1.1400000000000E+00 -5.5011905224391E-01  1.2127989469728E+00  7.7385417259730E-01
116  1.1500000000000E+00 -5.3778546680013E-01  1.1380581994128E+00  8.6548831624750E-01
117  1.1600000000000E+00 -5.2335240473809E-01  1.0606484002062E+00  9.5687191865615E-01
118  1.1700000000000E+00 -5.0700849839878E-01  9.8105652542905E-01  1.0472309960531E+00
119  1.1800000000000E+00 -4.8894940572236E-01  8.9978259549878E-01  1.1357968893442E+00
120  1.1900000000000E+00 -4.6937614955918E-01  8.1733517355370E-01  1.2218159421540E+00
121  1.2000000000000E+00 -4.4849341597188E-01  7.3422668542068E-01  1.3045593222303E+00
122  1.2100000000000E+00 -4.2650781715748E-01  6.5096858627293E-01  1.3833328516902E+00
123  1.2200000000000E+00 -4.0362612505689E-01  5.6806640436388E-01  1.4574866875120E+00
124  1.2300000000000E+00 -3.8005348285149E-01  4.8601469948975E-01  1.5264246653823E+00
125  1.2400000000000E+00 -3.5599160357551E-01  4.0529198364213E-01  1.5896130862944E+00
126  1.2500000000000E+00 -3.3163696819466E-01  3.2635566406052E-01  1.6465886857288E+00
127  1.2600000000000E+00 -3.0717903991332E-01  2.4963708504085E-01  1.6969654790987E+00
128  1.2700000000000E+00 -2.8279851749702E-01  1.7553676521151E-01  1.7404401228813E+00
129  1.2800000000000E+00 -2.5866565821723E-01  1.0441995187878E-01  1.7767953683134E+00
130  1.2900000000000E+00 -2.3493871095770E-01  3.6612644238716E-02  1.8059011123094E+00
131  1.3000000000000E+00 -2.1176251247154E-01 -2.7601726284567E-02  1.8277124667648E+00
132  1.3100000000000E+00 -1.8926731498970E-01 -8.7984727112138E-02  1.8422641721549E+00
133  1.3200000000000E+00 -1.6756793168024E-01 -1.4434418484517E-01  1.8496605731516E+00
134  1.3300000000000E+00 -1.4676330861471E-01 -1.9653393260188E-01  1.8500602478863E+00
135  1.3400000000000E+00 -1.2693665890392E-01 -2.4445162923218E-01  1.8436542161709E+00
136  1.3500000000000E+00 -1.0815630904366E-01 -2.8803421385717E-01  1.8306369624899E+00
137  1.3600000000000E+00 -9.0477485723424E-02 -3.2725031194173E-01  1.8111681089484E+00
138  1.3700000000000E+00 -7.3943482270501E-02 -3.6209541400874E-01  1.7853764212263E+00
139  1.3800000000000E+00 -5.8584796494983E-02 -3.9259511893666E-01  1.7534242631681E+00
140  1.3900000000000E+00 -4.4419224410369E-02 -4.1880543289678E-01  1.7155245560715E+00
141  1.4000000000000E+00 -3.1452579928875E-02 -4.4081096419446E-01  1.6719372715252E+00
142  1.4100000000000E+00 -1.9679482105271E-02 -4.5872296925504E-01  1.6229661694503E+00
143  1.4200000000000E+00 -9.0842166889801E-03 -4.7267720698166E-01  1.5689550996674E+00
144  1.4300000000000E+00  3.5834437220113E-04 -4.8283164152660E-01  1.5102840067205E+00
145  1.4400000000000E+00  8.6817793886983E-03 -4.8936402488455E-01  1.4473646847680E+00
146  1.4500000000000E+00  1.5927123267458E-02 -4.9246939112716E-01  1.3806363324505E+00
147  1.4600000000000E+00  2.2141857402404E-02 -4.9235749384539E-01  1.3105609580782E+00
148  1.4700000000000E+00  2.7378896386495E-02 -4.8925021780848E-01  1.2376186858321E+00
149  1.4800000000000E+00  3.1695584240772E-02 -4.8337899489610E-01  1.1623030133073E+00
150  1.4900000000000E+00  3.5152712108075E-02 -4.7498225298566E-01  1.0851160694572E+00
151  1.5000000000000E+00  3.7813568507534E-02 -4.6430292490169E-01  1.0065639208071E+00
152  1.5100000000000E+00  3.9743032241296E-02 -4.5158604255260E-01  9.2715197150885E-01
153  1.5200000000000E+00  4.1006716957842E-02 -4.3707643922889E-01  8.4738050050605E-01
154  1.5300000000000E+00  4.1670175183917E-02 -4.2101658059100E-01  7.6774037597828E-01
155  1.5400000000000E+00  4.1798168417322E-02 -4.0364454237944E-01  6.8870898430188E-01
156  1.5500000000000E+00  4.1454008556195E-02 -3.8519215007903E-01  6.1074640682143E-01
157  1.5600000000000E+00  4.0698974649022E-02 -3.6588329303754E-01  5.3429187418145E-01
158  1.5700000000000E+00  3.9591807638504E-02 -3.4593242270444E-01  4.5976052397839E-01
159  1.5800000000000E+00  3.8188284446859E-02 -3.2554324171992E-01  3.8754048303956E-01
160  1.5900000000000E+00  3.6540871529152E-02 -3.0490758790048E-01  3.1799029187597E-01
161  1.6000000000000E+00  3.4698456771786E-02 -2.8420451430184E-01  2.5143668415883E-01
162  1.6100000000000E+00  3.2706157511160E-02 -2.6359956402491E-01  1.8817273023679E-01
163  1.6200000000000E+00  3.0605201361938E-02 -2.4324423584854E-01  1.2845634923651E-01
164  1.6300000000000E+00  2.8432875568707E-02 -2.2327563440672E-01  7.2509190141456E-02
165  1.6400000000000E+00  2.6222539800344E-02 -2.0381629666776E-01  2.0515878805530E-02
166  1.6500000000000E+00  2.4003697345187E-02 -1.8497418684589E-01 -2.7376369091992E-02
167  1.6600000000000E+00  2.1802115178462E-02 -1.6684283877453E-01 -7.1057806363007E-02
168  1.6700000000000E+00  1.9639991843191E-02 -1.4950164972662E-01 -1.1045584655326E-01
169  1.6800000000000E+00  1.7536159545637E-02 -1.3301629258134E-01 -1.4553446157773E-01
170  1.6900000000000E+00  1.5506317284875E-02 -1.1743924366645E-01 -1.7629326659115E-01
171  1.7000000000000E+00  1.3563285878815E-02 -1.0281040567202E-01 -2.0276632722702E-01
172  1.7100000000000E+00  1.1717277807500E-02 -8.9157810598182E-02 -2.2502070885797E-01
173  1.7200000000000E+00  9.9761746206243E-03 -7.6498386583039E-02 -2.4315479218200E-01
174  1.7300000000000E+00  8.3458050163318E-03 -6.4838772816604E-02 -2.5729638014049E-01
175  1.7400000000000E+00  6.8302170869319E-03 -5.4176167113567E-02 -2.6760062217589E-01
176  1.7500000000000E+00  5.4319387402876E-03 -4.4499191380665E-02 -2.7424778228510E-01
177  1.7600000000000E+00  4.1522209546076E-03 -3.5788761212344E-02 -2.7744087712111E-01
178  1.7700000000000E+00  2.9912591256236E-03 -2.8018946686816E-02 -2.7740321073291E-01
179  1.7800000000000E+00  1.9483885721108E-03 -2.1157812829184E-02 -2.7437583156606E-01
180  1.7900000000000E+00  1.0222509620311E-03 -1.5168229295014E-02 -2.6861493719965E-01
181  1.8000000000000E+00  2.1092930195370E-04 -1.0008640436785E-02 -2.6038925085746E-01
182  1.8100000000000E+00 -4.8795009907827E-04 -5.6337882411788E-03 -2.4997739295466E-01
183  1.8200000000000E+00 -1.0771494697247E-03 -1.9953821064274E-03 -2.3766526968920E-01
184  1.8300000000000E+00 -1.5597851697536E-03  9.5728899064628E-04 -2.2374349908900E-01
185  1.8400000000000E+00 -1.9393262283344E-03  3.2768049425655E-03 -2.0850489349202E-01
186  1.8500000000000E+00 -2.2196243277043E-03  5.0171252404733E-03 -1.9224201605199E-01
187  1.8600000000000E+00 -2.4049730589176E-03  6.2331622815027E-03 -1.7524482718582E-01
188  1.8700000000000E+00 -2.5001896646638E-03  6.9804082547998E-03 -1.5779842533673E-01
189  1.8800000000000E+00 -2.5107397871100E-03  7.3146607889322E-03 -1.4018095110754E-01
190  1.8900000000000E+00 -2.4428864462911E-03  7.2918148071008E-03 -1.2266163272437E-01
191  1.9000000000000E+00 -2.3035708270645E-03  6.9671455239795E-03 -1.0549829956822E-01
192  1.9100000000000E+00 -2.1031847903396E-03  6.4003115152635E-03 -8.8941664212834E-02
193  1.9200000000000E+00 -1.8725899304038E-03  5.6884967018966E-03 -7.3272344028017E-02
194  1.9300000000000E+00 -1.6295632766451E-03  4.8999522894390E-03 -5.8722389174109E-02
195  1.9400000000000E+00 -1.3728230489744E-03  4.0618037218182E-03 -4.5459909433286E-02
196  1.9500000000000E+00 -1.1073010529236E-03  3.2094507623110E-03 -3.3645325712145E-02
197  1.9600000000000E+00 -8.4066867157905E-04  2.3794774174045E-03 -2.3422214116635E-02
198  1.9700000000000E+00 -5.8399670260735E-04  1.6107283126161E-03 -1.4917777629872E-02
199  1.9800000000000E+00 -3.5205758555137E-04  9.4481476464524E-04 -8.2456071072883E-03
200  1.9900000000000E+00 -1.6124297255637E-04  4.2090585904552E-04 -3.4682722845088E-03
201  2.0000000000000E+00 -3.9702276833142E-05  1.0053582449043E-04 -7.7754232460513E-04
202  2.0100000000000E+00  2.1490901688059E-06 -5.4595364849763E-06  4.4598175857813E-05
203  2.0200000000000E+00  2.9749889149509E-07 -7.3387169832578E-07  5.4444207607193E-06
204  2.03 -0.  0. -0.
205  2.04  0. -0.  0.
206  2.05  0. -0.  0.
207  2.06  0.  0.  0.
208  2.07  0.  0.  0.
209  2.08  0.  0.  0.
210  2.09  0.  0.  0.
211  2.10  0.  0.  0.
212  2.11  0.  0.  0.
213  2.12  0.  0.  0.
214  2.13  0.  0.  0.
215  2.14  0.  0.  0.
216  2.15  0.  0.  0.
217  2.16  0.  0.  0.
218  2.17  0.  0.  0.
219  2.18  0.  0.  0.
220  2.19  0.  0.  0.
221  2.20  0.  0.  0.
222  2.21  0.  0.  0.
223  2.22  0.  0.  0.
224  2.23  0.  0.  0.
225  2.24  0.  0.  0.
226  2.25  0.  0.  0.
227  2.26  0.  0.  0.
228  2.27  0.  0.  0.
229  2.28  0.  0.  0.
230  2.29  0.  0.  0.
231  2.30  0.  0.  0.
232  2.31  0.  0.  0.
233  2.32  0.  0.  0.
234  2.33  0.  0.  0.
235  2.34  0.  0.  0.
236  2.35  0.  0.  0.
237  2.36  0.  0.  0.
238  2.37  0.  0.  0.
239  2.38  0.  0.  0.
240  2.39  0.  0.  0.
241  2.40  0.  0.  0.
242  2.41  0.  0.  0.
243  2.42  0.  0.  0.
244  2.43  0.  0.  0.
245  2.44  0.  0.  0.
246  2.45  0.  0.  0.
247  2.46  0.  0.  0.
248  2.47  0.  0.  0.
249  2.48  0.  0.  0.
250  2.49  0.  0.  0.
251  2.50  0.  0.  0.
252  2.51  0.  0.  0.
253  2.52  0.  0.  0.
254  2.53  0.  0.  0.
255  2.54  0.  0.  0.
256  2.55  0.  0.  0.
257  2.56  0.  0.  0.
258  2.57  0.  0.  0.
259  2.58  0.  0.  0.
260  2.59  0.  0.  0.
261  2.60  0.  0.  0.
262  2.61  0.  0.  0.
263  2.62  0.  0.  0.
264  2.63  0.  0.  0.
265  2.64  0.  0.  0.
266  2.65  0.  0.  0.
267  2.66  0.  0.  0.
268  2.67  0.  0.  0.
269  2.68  0.  0.  0.
270  2.69  0.  0.  0.
271  2.70  0.  0.  0.
272  2.71  0.  0.  0.
273  2.72  0.  0.  0.
274  2.73  0.  0.  0.
275  2.74  0.  0.  0.
276  2.75  0.  0.  0.
277  2.76  0.  0.  0.
278  2.77  0.  0.  0.
279  2.78  0.  0.  0.
280  2.79  0.  0.  0.
281  2.80  0.  0.  0.
282  2.81  0.  0.  0.
283  2.82  0.  0.  0.
284  2.83  0.  0.  0.
285  2.84  0.  0.  0.
286  2.85  0.  0.  0.
287  2.86  0.  0.  0.
288  2.87  0.  0.  0.
289  2.88  0.  0.  0.
290  2.89  0.  0.  0.
291  2.90  0.  0.  0.
292  2.91  0.  0.  0.
293  2.92  0.  0.  0.
294  2.93  0.  0.  0.
295  2.94  0.  0.  0.
296  2.95  0.  0.  0.
297  2.96  0.  0.  0.
298  2.97  0.  0.  0.
299  2.98  0.  0.  0.
300  2.99  0.  0.  0.
301  3.00  0.  0.  0.
302  3.01  0.  0.  0.
303  3.02  0.  0.  0.
304  3.03  0.  0.  0.
305  3.04  0.  0.  0.
306  3.05  0.  0.  0.
307  3.06  0.  0.  0.
308  3.07  0.  0.  0.
309  3.08  0.  0.  0.
310  3.09  0.  0.  0.
311  3.10  0.  0.  0.
312  3.11  0.  0.  0.
313  3.12  0.  0.  0.
314  3.13  0.  0.  0.
315  3.14  0.  0.  0.
316  3.15  0.  0.  0.
317  3.16  0.  0.  0.
318  3.17  0.  0.  0.
319  3.18  0.  0.  0.
320  3.19  0.  0.  0.
321  3.20  0.  0.  0.
322  3.21  0.  0.  0.
323  3.22  0.  0.  0.
324  3.23  0.  0.  0.
325  3.24  0.  0.  0.
326  3.25  0.  0.  0.
327  3.26  0.  0.  0.
328  3.27  0.  0.  0.
329  3.28  0.  0.  0.
330  3.29  0.  0.  0.
331  3.30  0.  0.  0.
332  3.31  0.  0.  0.
333  3.32  0.  0.  0.
334  3.33  0.  0.  0.
335  3.34  0.  0.  0.
336  3.35  0.  0.  0.
337  3.36  0.  0.  0.
338  3.37  0.  0.  0.
339  3.38  0.  0.  0.
340  3.39  0.  0.  0.
341  3.40  0.  0.  0.
342  3.41  0.  0.  0.
343  3.42  0.  0.  0.
344  3.43  0.  0.  0.
345  3.44  0.  0.  0.
346  3.45  0.  0.  0.
347  3.46  0.  0.  0.
348  3.47  0.  0.  0.
349  3.48  0.  0.  0.
350  3.49  0.  0.  0.
351  3.50  0.  0.  0.
352  3.51  0.  0.  0.
353  3.52  0.  0.  0.
354  3.53  0.  0.  0.
355  3.54  0.  0.  0.
356  3.55  0.  0.  0.
357  3.56  0.  0.  0.
358  3.57  0.  0.  0.
359  3.58  0.  0.  0.
360  3.59  0.  0.  0.
361  3.60  0.  0.  0.
362  3.61  0.  0.  0.
363  3.62  0.  0.  0.
364  3.63  0.  0.  0.
365  3.64  0.  0.  0.
366  3.65  0.  0.  0.
367  3.66  0.  0.  0.
368  3.67  0.  0.  0.
369  3.68  0.  0.  0.
370  3.69  0.  0.  0.
371  3.70  0.  0.  0.
372  3.71  0.  0.  0.
373  3.72  0.  0.  0.
374  3.73  0.  0.  0.
375  3.74  0.  0.  0.
376  3.75  0.  0.  0.
377  3.76  0.  0.  0.
378  3.77  0.  0.  0.
379  3.78  0.  0.  0.
380  3.79  0.  0.  0.
381  3.80  0.  0.  0.
382  3.81  0.  0.  0.
383  3.82  0.  0.  0.
384  3.83  0.  0.  0.
385  3.84  0.  0.  0.
386  3.85  0.  0.  0.
387  3.86  0.  0.  0.
388  3.87  0.  0.  0.
389  3.88  0.  0.  0.
390  3.89  0.  0.  0.
391  3.90  0.  0.  0.
392  3.91  0.  0.  0.
393  3.92  0.  0.  0.
394  3.93  0.  0.  0.
395  3.94  0.  0.  0.
396  3.95  0.  0.  0.
397  3.96  0.  0.  0.
398  3.97  0.  0.  0.
399  3.98  0.  0.  0.
400  3.99  0.  0.  0.
401  4.00  0.  0.  0.
402  4.01  0.  0.  0.
403  4.02  0.  0.  0.
404  4.03  0.  0.  0.
405  4.04  0.  0.  0.
406  4.05  0.  0.  0.
407  4.06  0.  0.  0.
408  4.07  0.  0.  0.
409  4.08  0.  0.  0.
410  4.09  0.  0.  0.
411  4.10  0.  0.  0.
412  4.11  0.  0.  0.
413  4.12  0.  0.  0.
414  4.13  0.  0.  0.
415  4.14  0.  0.  0.
416  4.15  0.  0.  0.
417  4.16  0.  0.  0.
418  4.17  0.  0.  0.
419  4.18  0.  0.  0.
420  4.19  0.  0.  0.
421  4.20  0.  0.  0.
422  4.21  0.  0.  0.
423  4.22  0.  0.  0.
424  4.23  0.  0.  0.
425  4.24  0.  0.  0.
426  4.25  0.  0.  0.
427  4.26  0.  0.  0.
428  4.27  0.  0.  0.
429  4.28  0.  0.  0.
430  4.29  0.  0.  0.
431  4.30  0.  0.  0.
432  4.31  0.  0.  0.
433  4.32  0.  0.  0.
434  4.33  0.  0.  0.
435  4.34  0.  0.  0.
436  4.35  0.  0.  0.
437  4.36  0.  0.  0.
438  4.37  0.  0.  0.
439  4.38  0.  0.  0.
440  4.39  0.  0.  0.
441  4.40  0.  0.  0.
442  4.41  0.  0.  0.
443  4.42  0.  0.  0.
444  4.43  0.  0.  0.
445  4.44  0.  0.  0.
446  4.45  0.  0.  0.
447  4.46  0.  0.  0.
448  4.47  0.  0.  0.
449  4.48  0.  0.  0.
450  4.49  0.  0.  0.
451  4.50  0.  0.  0.
452  4.51  0.  0.  0.
453  4.52  0.  0.  0.
454  4.53  0.  0.  0.
455  4.54  0.  0.  0.
456  4.55  0.  0.  0.
457  4.56  0.  0.  0.
458  4.57  0.  0.  0.
459  4.58  0.  0.  0.
460  4.59  0.  0.  0.
461  4.60  0.  0.  0.
462  4.61  0.  0.  0.
463  4.62  0.  0.  0.
464  4.63  0.  0.  0.
465  4.64  0.  0.  0.
466  4.65  0.  0.  0.
467  4.66  0.  0.  0.
468  4.67  0.  0.  0.
469  4.68  0.  0.  0.
470  4.69  0.  0.  0.
471  4.70  0.  0.  0.
472  4.71  0.  0.  0.
473  4.72  0.  0.  0.
474  4.73  0.  0.  0.
475  4.74  0.  0.  0.
476  4.75  0.  0.  0.
477  4.76  0.  0.  0.
478  4.77  0.  0.  0.
479  4.78  0.  0.  0.
480  4.79  0.  0.  0.
481  4.80  0.  0.  0.
482  4.81  0.  0.  0.
483  4.82  0.  0.  0.
484  4.83  0.  0.  0.
485  4.84  0.  0.  0.
486  4.85  0.  0.  0.
487  4.86  0.  0.  0.
488  4.87  0.  0.  0.
489  4.88  0.  0.  0.
490  4.89  0.  0.  0.
491  4.90  0.  0.  0.
492  4.91  0.  0.  0.
493  4.92  0.  0.  0.
494  4.93  0.  0.  0.
495  4.94  0.  0.  0.
496  4.95  0.  0.  0.
497  4.96  0.  0.  0.
498  4.97  0.  0.  0.
499  4.98  0.  0.  0.
500  4.99  0.  0.  0.
501  5.00  0.  0.  0.
502  5.01  0.  0.  0.
503  5.02  0.  0.  0.
504  5.03  0.  0.  0.
505  5.04  0.  0.  0.
506  5.05  0.  0.  0.
507  5.06  0.  0.  0.
508  5.07  0.  0.  0.
509  5.08  0.  0.  0.
510  5.09  0.  0.  0.
511  5.10  0.  0.  0.
512  5.11  0.  0.  0.
513  5.12  0.  0.  0.
514  5.13  0.  0.  0.
515  5.14  0.  0.  0.
516  5.15  0.  0.  0.
517  5.16  0.  0.  0.
518  5.17  0.  0.  0.
519  5.18  0.  0.  0.
520  5.19  0.  0.  0.
521  5.20  0.  0.  0.
522  5.21  0.  0.  0.
523  5.22  0.  0.  0.
524  5.23  0.  0.  0.
525  5.24  0.  0.  0.
526  5.25  0.  0.  0.
527  5.26  0.  0.  0.
528  5.27  0.  0.  0.
529  5.28  0.  0.  0.
530  5.29  0.  0.  0.
531  5.30  0.  0.  0.
532  5.31  0.  0.  0.
533  5.32  0.  0.  0.
534  5.33  0.  0.  0.
535  5.34  0.  0.  0.
536  5.35  0.  0.  0.
537  5.36  0.  0.  0.
538  5.37  0.  0.  0.
539  5.38  0.  0.  0.
540  5.39  0.  0.  0.
541  5.40  0.  0.  0.
542  5.41  0.  0.  0.
543  5.42  0.  0.  0.
544  5.43  0.  0.  0.
545  5.44  0.  0.  0.
546  5.45  0.  0.  0.
547  5.46  0.  0.  0.
548  5.47  0.  0.  0.
549  5.48  0.  0.  0.
550  5.49  0.  0.  0.
551  5.50  0.  0.  0.
552  5.51  0.  0.  0.
553  5.52  0.  0.  0.
554  5.53  0.  0.  0.
555  5.54  0.  0.  0.
556  5.55  0.  0.  0.
557  5.56  0.  0.  0.
558  5.57  0.  0.  0.
559  5.58  0.  0.  0.
560  5.59  0.  0.  0.
561  5.60  0.  0.  0.
562  5.61  0.  0.  0.
563  5.62  0.  0.  0.
564  5.63  0.  0.  0.
565  5.64  0.  0.  0.
566  5.65  0.  0.  0.
567  5.66  0.  0.  0.
568  5.67  0.  0.  0.
569  5.68  0.  0.  0.
570  5.69  0.  0.  0.
571  5.70  0.  0.  0.
572  5.71  0.  0.  0.
573  5.72  0.  0.  0.
574  5.73  0.  0.  0.
575  5.74  0.  0.  0.
576  5.75  0.  0.  0.
577  5.76  0.  0.  0.
578  5.77  0.  0.  0.
579  5.78  0.  0.  0.
580  5.79  0.  0.  0.
581  5.80  0.  0.  0.
582  5.81  0.  0.  0.
583  5.82  0.  0.  0.
584  5.83  0.  0.  0.
585  5.84  0.  0.  0.
586  5.85  0.  0.  0.
587  5.86  0.  0.  0.
588  5.87  0.  0.  0.
589  5.88  0.  0.  0.
590  5.89  0.  0.  0.
591  5.90  0.  0.  0.
592  5.91  0.  0.  0.
593  5.92  0.  0.  0.
594  5.93  0.  0.  0.
595  5.94  0.  0.  0.
596  5.95  0.  0.  0.
597  5.96  0.  0.  0.
598  5.97  0.  0.  0.
599  5.98  0.  0.  0.
600  5.99  0.  0.  0.
1                         6.9549557363669E+00  7.1800251442312E-01
1  0.0000000000000E+00  3.7558059995391E-09 -1.5858142965453E-08
2  1.0000000000000E-02  1.1839417349405E-03 -1.8047843229155E-03
3  2.0000000000000E-02  4.7275252448629E-03 -7.1894146053804E-03
4  3.0000000000000E-02  1.0606147559454E-02 -1.6065242257101E-02
5  4.0000000000000E-02  1.8779208589282E-02 -2.8286241999496E-02
6  5.0000000000000E-02  2.9190710803174E-02 -4.3651563420842E-02
7  6.0000000000000E-02  4.1770083689366E-02 -6.1909039724622E-02
8  7.0000000000000E-02  5.6433218240782E-02 -8.2759591578585E-02
9  8.0000000000000E-02  7.3083692949013E-02 -1.0586244811390E-01
10  9.0000000000000E-02  9.1614169370468E-02 -1.3084109263306E-01
11  1.0000000000000E-01  1.1190793230388E-01 -1.5728982771667E-01
12  1.1000000000000E-01  1.3384054704580E-01 -1.8478084339962E-01
13  1.2000000000000E-01  1.5728160411692E-01 -2.1287166311119E-01
14  1.3000000000000E-01  1.8209652031521E-01 -2.4111283530152E-01
15  1.4000000000000E-01  2.0814836398035E-01 -2.6905573422836E-01
16  1.5000000000000E-01  2.3529967196635E-01 -2.9626033133560E-01
17  1.6000000000000E-01  2.6341422602345E-01 -3.2230279905660E-01
18  1.7000000000000E-01  2.9235875708406E-01 -3.4678281171752E-01
19  1.8000000000000E-01  3.2200454731663E-01 -3.6933041345275E-01
20  1.9000000000000E-01  3.5222890173367E-01 -3.8961233058752E-01
21  2.0000000000000E-01  3.8291646358044E-01 -4.0733761566332E-01
22  2.1000000000000E-01  4.1396035064748E-01 -4.2226252201361E-01
23  2.2000000000000E-01  4.4526309299033E-01 -4.3419452133610E-01
24  2.3000000000000E-01  4.7673735624473E-01 -4.4299539182128E-01
25  2.4000000000000E-01  5.0830643872813E-01 -4.4858332081990E-01
26  2.5000000000000E-01  5.3990453474763E-01 -4.5093398347953E-01
27  2.6000000000000E-01  5.7147676091246E-01 -4.5008057694626E-01
28  2.7000000000000E-01  6.0297894669888E-01 -4.4611280829362E-01
29  2.8000000000000E-01  6.3437719495319E-01 -4.3917485297977E-01
30  2.9000000000000E-01  6.6564722236570E-01 -4.2946231901732E-01
31  3.0000000000000E-01  6.9677349412385E-01 -4.1721826984205E-01
32  3.1000000000000E-01  7.2774817087939E-01 -4.0272837577043E-01
33  3.2000000000000E-01  7.5856988976973E-01 -3.8631527964103E-01
34  3.3000000000000E-01  7.8924240445031E-01 -3.6833227645777E-01
35  3.4000000000000E-01  8.1977311186098E-01 -3.4915641933998E-01
36  3.5000000000000E-01  8.5017149571357E-01 -3.2918117460611E-01
37  3.6000000000000E-01  8.8044751840535E-01 -3.0880875718444E-01
38  3.7000000000000E-01  9.1060999419890E-01 -2.8844228359803E-01
39  3.8000000000000E-01  9.4066497704063E-01 -2.6847788339928E-01
40  3.9000000000000E-01  9.7061419630331E-01 -2.4929691105853E-01
41  4.0000000000000E-01  1.0004535730313E+00 -2.3125839891409E-01
42  4.1000000000000E-01  1.0301718479505E+00 -2.1469188788358E-01
43  4.2000000000000E-01  1.0597493505975E+00 -1.9989076628107E-01
44  4.3000000000000E-01  1.0891569364591E+00 -1.8710623838675E-01
45  4.4000000000000E-01  1.1183551160304E+00 -1.7654203352198E-01
46  4.5000000000000E-01  1.1472933962562E+00 -1.6834995348261E-01