Yb    ONCVPSP-4.0.1  r_core=   1.80997   1.50361   1.65463   1.80997
70.0000     24.0000      221106    zatom,zion,pspd
8      11   3     4   600     0    pspcod,pspxc,lmax,lloc,mmax,r2well
5.99000000  0.25000000  0.00000000    rchrg fchrg qchrg
2     2     2     2     0    nproj
1     1           extension_switch
0                         9.2735485636683E+00  8.7658341757516E-01
1  0.0000000000000E+00  4.7092996169340E-10 -1.5299311392422E-09
2  1.0000000000000E-02  5.1077396711323E-02  1.3314809322594E-03
3  2.0000000000000E-02  1.0212713348307E-01  2.5652676877740E-03
4  3.0000000000000E-02  1.5312096971750E-01  3.6056703648785E-03
5  4.0000000000000E-02  2.0402951273641E-01  4.3609782331018E-03
6  5.0000000000000E-02  2.5482166470923E-01  4.7453762663203E-03
7  6.0000000000000E-02  3.0546409680425E-01  4.6807751138623E-03
8  7.0000000000000E-02  3.5592075907774E-01  4.0985274751391E-03
9  8.0000000000000E-02  4.0615243414429E-01  2.9410053733103E-03
10  9.0000000000000E-02  4.5611634209487E-01  1.1630146983090E-03
11  1.0000000000000E-01  5.0576580345203E-01 -1.2669744137433E-03
12  1.1000000000000E-01  5.5504996618425E-01 -4.3658003083557E-03
13  1.2000000000000E-01  6.0391360195324E-01 -8.1348018405084E-03
14  1.3000000000000E-01  6.5229697584855E-01 -1.2559242918990E-02
15  1.4000000000000E-01  7.0013579288659E-01 -1.7607979619914E-02
16  1.5000000000000E-01  7.4736122352675E-01 -2.3233376612062E-02
17  1.6000000000000E-01  7.9390000939986E-01 -2.9371476222992E-02
18  1.7000000000000E-01  8.3967464936680E-01 -3.5942420002262E-02
19  1.8000000000000E-01  8.8460366494092E-01 -4.2851119151301E-02
20  1.9000000000000E-01  9.2860194303245E-01 -4.9988166735405E-02
21  2.0000000000000E-01  9.7158115291746E-01 -5.7230981215004E-02
22  2.1000000000000E-01  1.0134502333150E+00 -6.4445167579028E-02
23  2.2000000000000E-01  1.0541159444837E+00 -7.1486079272070E-02
24  2.3000000000000E-01  1.0934834793396E+00 -7.8200561224058E-02
25  2.4000000000000E-01  1.1314571267565E+00 -8.4428851653076E-02
26  2.5000000000000E-01  1.1679409794598E+00 -9.0006617955404E-02
27  2.6000000000000E-01  1.2028396782604E+00 -9.4767099955036E-02
28  2.7000000000000E-01  1.2360591838203E+00 -9.8543332085186E-02
29  2.8000000000000E-01  1.2675075666930E+00 -1.0117041474276E-01
30  2.9000000000000E-01  1.2970958060524E+00 -1.0248780411214E-01
31  3.0000000000000E-01  1.3247385873130E+00 -1.0234158921223E-01
32  3.1000000000000E-01  1.3503550887626E+00 -1.0058672479121E-01
33  3.2000000000000E-01  1.3738697473674E+00 -9.7089188979942E-02
34  3.3000000000000E-01  1.3952129940831E+00 -9.1728035319653E-02
35  3.4000000000000E-01  1.4143219492950E+00 -8.4397309891694E-02
36  3.5000000000000E-01  1.4311410694309E+00 -7.5007805791863E-02
37  3.6000000000000E-01  1.4456227363208E+00 -6.3488629085111E-02
38  3.7000000000000E-01  1.4577277815268E+00 -4.9788552633098E-02
39  3.8000000000000E-01  1.4674259386112E+00 -3.3877136776004E-02
40  3.9000000000000E-01  1.4746962171596E+00 -1.5745598742018E-02
41  4.0000000000000E-01  1.4795271932985E+00  4.5925841822441E-03
42  4.1000000000000E-01  1.4819172124536E+00  2.7101349300093E-02
43  4.2000000000000E-01  1.4818745011525E+00  5.1722008977856E-02
44  4.3000000000000E-01  1.4794171857854E+00  7.8373501235500E-02
45  4.4000000000000E-01  1.4745732173820E+00  1.0695293094090E-01
46  4.5000000000000E-01  1.4673802026186E+00  1.3733639824387E-01
47  4.6000000000000E-01  1.4578851424381E+00  1.6938010704284E-01
48  4.7000000000000E-01  1.4461440808164E+00  2.0292174249011E-01
49  4.8000000000000E-01  1.4322216673359E+00  2.3778210286429E-01
50  4.9000000000000E-01  1.4161906383116E+00  2.7376696761485E-01
51  5.0000000000000E-01  1.3981312222484E+00  3.1066918006867E-01
52  5.1000000000000E-01  1.3781304763645E+00  3.4827092022092E-01
53  5.2000000000000E-01  1.3562815617997E+00  3.8634614025940E-01
54  5.3000000000000E-01  1.3326829659101E+00  4.2466313303080E-01
55  5.4000000000000E-01  1.3074376807308E+00  4.6298720158444E-01
56  5.5000000000000E-01  1.2806523472570E+00  5.0108339625398E-01
57  5.6000000000000E-01  1.2524363756353E+00  5.3871928448883E-01
58  5.7000000000000E-01  1.2229010516755E+00  5.7566771784009E-01
59  5.8000000000000E-01  1.1921586402726E+00  6.1170956016186E-01
60  5.9000000000000E-01  1.1603214963775E+00  6.4663634121082E-01
61  6.0000000000000E-01  1.1275011940613E+00  6.8025280042109E-01
62  6.1000000000000E-01  1.0938076839893E+00  7.1237928669237E-01
63  6.2000000000000E-01  1.0593484892583E+00  7.4285398154863E-01
64  6.3000000000000E-01  1.0242279490560E+00  7.7153491498378E-01
65  6.4000000000000E-01  9.8854651898311E-01  7.9830174569139E-01
66  6.5000000000000E-01  9.5240013614408E-01  8.2305728014438E-01
67  6.6000000000000E-01  9.1587965627021E-01  8.4572870812013E-01
68  6.7000000000000E-01  8.7907036919969E-01  8.6626853571262E-01
69  6.8000000000000E-01  8.4205159801726E-01  8.8465520059681E-01
70  6.9000000000000E-01  8.0489638606232E-01  9.0089335826115E-01
71  7.0000000000000E-01  7.6767127486503E-01  9.1501383205447E-01
72  7.1000000000000E-01  7.3043617487986E-01  9.2707322414460E-01
73  7.2000000000000E-01  6.9324432967075E-01  9.3715318880983E-01
74  7.3000000000000E-01  6.5614237297909E-01  9.4535937381519E-01
75  7.4000000000000E-01  6.1917047688994E-01  9.5182003991376E-01
76  7.5000000000000E-01  5.8236258812208E-01  9.5668437269559E-01
77  7.6000000000000E-01  5.4574674831722E-01  9.6012050503082E-01
78  7.7000000000000E-01  5.0934549311104E-01  9.6231327216435E-01
79  7.8000000000000E-01  4.7317632374719E-01  9.6346172506288E-01
80  7.9000000000000E-01  4.3725224405917E-01  9.6377643084770E-01
81  8.0000000000000E-01  4.0158235480713E-01  9.6347659202013E-01
82  8.1000000000000E-01  3.6617249662833E-01  9.6278701866456E-01
83  8.2000000000000E-01  3.3102593225044E-01  9.6193498986240E-01
84  8.3000000000000E-01  2.9614405813516E-01  9.6114704214105E-01
85  8.4000000000000E-01  2.6152713537100E-01  9.6064572389432E-01
86  8.5000000000000E-01  2.2717502942260E-01  9.6064635533113E-01
87  8.6000000000000E-01  1.9308794827301E-01  9.6135383362915E-01
88  8.7000000000000E-01  1.5926716856328E-01  9.6295952259059E-01
89  8.8000000000000E-01  1.2571573953965E-01  9.6563826522510E-01
90  8.9000000000000E-01  9.2439154957928E-02  9.6954555633498E-01
91  9.0000000000000E-01  5.9445983561489E-02  9.7481491037063E-01
92  9.1000000000000E-01  2.6748449334754E-02  9.8155545758922E-01
93  9.2000000000000E-01 -5.6370465704749E-03  9.8984979891994E-01
94  9.3000000000000E-01 -3.7689469545923E-02  9.9975214695599E-01
95  9.4000000000000E-01 -6.9382767307262E-02  1.0112867771996E+00
96  9.5000000000000E-01 -1.0068556322879E-01  1.0244468101363E+00
97  9.6000000000000E-01 -1.3156093171362E-01  1.0391933409541E+00
98  9.7000000000000E-01 -1.6196625903882E-01  1.0554549298151E+00
99  9.8000000000000E-01 -1.9185319205020E-01  1.0731274615839E+00
100  9.9000000000000E-01 -2.2116767601122E-01  1.0920743798801E+00
101  1.0000000000000E+00 -2.4985008185059E-01  1.1121272963068E+00
102  1.0100000000000E+00 -2.7783542202067E-01  1.1330869717695E+00
103  1.0200000000000E+00 -3.0505365318866E-01  1.1547246630010E+00
104  1.0300000000000E+00 -3.3143006304956E-01  1.1767838237863E+00
105  1.0400000000000E+00 -3.5688573768600E-01  1.1989821469943E+00
106  1.0500000000000E+00 -3.8133810511936E-01  1.2210139304077E+00
107  1.0600000000000E+00 -4.0470155000574E-01  1.2425527465327E+00
108  1.0700000000000E+00 -4.2688809383884E-01  1.2632543940912E+00
109  1.0800000000000E+00 -4.4780813453555E-01  1.2827601067832E+00
110  1.0900000000000E+00 -4.6737123889889E-01  1.3006999931437E+00
111  1.1000000000000E+00 -4.8548698118170E-01  1.3166966799416E+00
112  1.1100000000000E+00 -5.0206582080621E-01  1.3303691305394E+00
113  1.1200000000000E+00 -5.1702001222757E-01  1.3413366089617E+00
114  1.1300000000000E+00 -5.3026453995398E-01  1.3492227600695E+00
115  1.1400000000000E+00 -5.4171807184127E-01  1.3536597761746E+00
116  1.1500000000000E+00 -5.5130392395386E-01  1.3542926206129E+00
117  1.1600000000000E+00 -5.5895103050856E-01  1.3507832791709E+00
118  1.1700000000000E+00 -5.6459491267585E-01  1.3428150107687E+00
119  1.1800000000000E+00 -5.6817864028275E-01  1.3300965693696E+00
120  1.1900000000000E+00 -5.6965378072024E-01  1.3123663696437E+00
121  1.2000000000000E+00 -5.6898132957854E-01  1.2893965693644E+00
122  1.2100000000000E+00 -5.6613261769202E-01  1.2609970417831E+00
123  1.2200000000000E+00 -5.6109018933911E-01  1.2270192112045E+00
124  1.2300000000000E+00 -5.5384864628472E-01  1.1873597245757E+00
125  1.2400000000000E+00 -5.4441545213863E-01  1.1419639310010E+00
126  1.2500000000000E+00 -5.3281169110584E-01  1.0908291395939E+00
127  1.2600000000000E+00 -5.1907277458285E-01  1.0340076238596E+00
128  1.2700000000000E+00 -5.0324908818285E-01  9.7160933776371E-01
129  1.2800000000000E+00 -4.8540657061479E-01  9.0380430466991E-01
130  1.2900000000000E+00 -4.6562721435578E-01  8.3082463527923E-01
131  1.3000000000000E+00 -4.4400947622228E-01  7.5296612450313E-01
132  1.3100000000000E+00 -4.2066858372257E-01  6.7058936971847E-01
133  1.3200000000000E+00 -3.9573672041485E-01  5.8412034392071E-01
134  1.3300000000000E+00 -3.6936307038592E-01  4.9405034686406E-01
135  1.3400000000000E+00 -3.4171369837650E-01  4.0093524524632E-01
136  1.3500000000000E+00 -3.1297123793194E-01  3.0539389910339E-01
137  1.3600000000000E+00 -2.8333435527868E-01  2.0810565590273E-01
138  1.3700000000000E+00 -2.5301695132566E-01  1.0980677606118E-01
139  1.3800000000000E+00 -2.2224705830183E-01  1.1285633872341E-02
140  1.3900000000000E+00 -1.9126538091834E-01 -8.6623484387224E-02
141  1.4000000000000E+00 -1.6032342468354E-01 -1.8304818777679E-01
142  1.4100000000000E+00 -1.2968114595987E-01 -2.7708762304682E-01
143  1.4200000000000E+00 -9.9604049551164E-02 -3.6782421123550E-01
144  1.4300000000000E+00 -7.0359650005789E-02 -4.5433777003139E-01
145  1.4400000000000E+00 -4.2213202312924E-02 -5.3572234882775E-01
146  1.4500000000000E+00 -1.5422596328841E-02 -6.1110614163646E-01
147  1.4600000000000E+00  9.7677030472300E-03 -6.7967488460592E-01
148  1.4700000000000E+00  3.3133801231236E-02 -7.4069918983656E-01
149  1.4800000000000E+00  5.4480754136540E-02 -7.9356633031402E-01
150  1.4900000000000E+00  7.3652347987368E-02 -8.3781704232039E-01
151  1.5000000000000E+00  9.0542208222655E-02 -8.7318697305923E-01
152  1.5100000000000E+00  1.0510736308941E-01 -8.9965712693298E-01
153  1.5200000000000E+00  1.1736226393944E-01 -9.1742590732366E-01
154  1.5300000000000E+00  1.2734890286529E-01 -9.2678766984156E-01
155  1.5400000000000E+00  1.3512623703846E-01 -9.2809038204108E-01
156  1.5500000000000E+00  1.4077018909229E-01 -9.2173587355416E-01
157  1.5600000000000E+00  1.4437270102456E-01 -9.0817639774961E-01
158  1.5700000000000E+00  1.4604077155302E-01 -8.8791123771143E-01
159  1.5800000000000E+00  1.4589532880424E-01 -8.6148275358388E-01
160  1.5900000000000E+00  1.4406995422880E-01 -8.2947192914516E-01
161  1.6000000000000E+00  1.4070947129665E-01 -7.9249346448517E-01
162  1.6100000000000E+00  1.3596841288868E-01 -7.5119046214626E-01
163  1.6200000000000E+00  1.3000938288995E-01 -7.0622875955637E-01
164  1.6300000000000E+00  1.2300132871064E-01 -6.5829096470178E-01
165  1.6400000000000E+00  1.1511774258515E-01 -6.0807025581755E-01
166  1.6500000000000E+00  1.0653481045457E-01 -5.5626400914152E-01
167  1.6600000000000E+00  9.7429527928692E-02 -5.0356732111814E-01
168  1.6700000000000E+00  8.7977803321696E-02 -4.5066649313658E-01
169  1.6800000000000E+00  7.8352567993686E-02 -3.9823254768502E-01
170  1.6900000000000E+00  6.8721919435400E-02 -3.4691486046029E-01
171  1.7000000000000E+00  5.9247264176547E-02 -2.9733481863511E-01
172  1.7100000000000E+00  5.0081709251188E-02 -2.5008025093952E-01
173  1.7200000000000E+00  4.1367953056658E-02 -2.0569843808748E-01
174  1.7300000000000E+00  3.3231463810370E-02 -1.6467487985321E-01
175  1.7400000000000E+00  2.5787200462860E-02 -1.2745269263935E-01
176  1.7500000000000E+00  1.9143593981922E-02 -9.4444304916936E-02
177  1.7600000000000E+00  1.3392286108663E-02 -6.6000480063938E-02
178  1.7700000000000E+00  8.6080097866732E-03 -4.2409460027897E-02
179  1.7800000000000E+00  4.8484645880451E-03 -2.3897826146140E-02
180  1.7900000000000E+00  2.1463906067397E-03 -1.0592041282616E-02
181  1.8000000000000E+00  5.3841416246521E-04 -2.6622259189824E-03
182  1.8100000000000E+00 -4.5834650496032E-07  2.2966430514900E-06
183  1.8200000000000E+00 -4.8828108459109E-06  2.4223819719619E-05
184  1.83  0. -0.
185  1.84 -0.  0.
186  1.85 -0. -0.
187  1.86  0.  0.
188  1.87  0.  0.
189  1.88  0.  0.
190  1.89  0.  0.
191  1.90  0.  0.
192  1.91  0.  0.
193  1.92  0.  0.
194  1.93  0.  0.
195  1.94  0.  0.
196  1.95  0.  0.
197  1.96  0.  0.
198  1.97  0.  0.
199  1.98  0.  0.
200  1.99  0.  0.
201  2.00  0.  0.
202  2.01  0.  0.
203  2.02  0.  0.
204  2.03  0.  0.
205  2.04  0.  0.
206  2.05  0.  0.
207  2.06  0.  0.
208  2.07  0.  0.
209  2.08  0.  0.
210  2.09  0.  0.
211  2.10  0.  0.
212  2.11  0.  0.
213  2.12  0.  0.
214  2.13  0.  0.
215  2.14  0.  0.
216  2.15  0.  0.
217  2.16  0.  0.
218  2.17  0.  0.
219  2.18  0.  0.
220  2.19  0.  0.
221  2.20  0.  0.
222  2.21  0.  0.
223  2.22  0.  0.
224  2.23  0.  0.
225  2.24  0.  0.
226  2.25  0.  0.
227  2.26  0.  0.
228  2.27  0.  0.
229  2.28  0.  0.
230  2.29  0.  0.
231  2.30  0.  0.
232  2.31  0.  0.
233  2.32  0.  0.
234  2.33  0.  0.
235  2.34  0.  0.
236  2.35  0.  0.
237  2.36  0.  0.
238  2.37  0.  0.
239  2.38  0.  0.
240  2.39  0.  0.
241  2.40  0.  0.
242  2.41  0.  0.
243  2.42  0.  0.
244  2.43  0.  0.
245  2.44  0.  0.
246  2.45  0.  0.
247  2.46  0.  0.
248  2.47  0.  0.
249  2.48  0.  0.
250  2.49  0.  0.
251  2.50  0.  0.
252  2.51  0.  0.
253  2.52  0.  0.
254  2.53  0.  0.
255  2.54  0.  0.
256  2.55  0.  0.
257  2.56  0.  0.
258  2.57  0.  0.
259  2.58  0.  0.
260  2.59  0.  0.
261  2.60  0.  0.
262  2.61  0.  0.
263  2.62  0.  0.
264  2.63  0.  0.
265  2.64  0.  0.
266  2.65  0.  0.
267  2.66  0.  0.
268  2.67  0.  0.
269  2.68  0.  0.
270  2.69  0.  0.
271  2.70  0.  0.
272  2.71  0.  0.
273  2.72  0.  0.
274  2.73  0.  0.
275  2.74  0.  0.
276  2.75  0.  0.
277  2.76  0.  0.
278  2.77  0.  0.
279  2.78  0.  0.
280  2.79  0.  0.
281  2.80  0.  0.
282  2.81  0.  0.
283  2.82  0.  0.
284  2.83  0.  0.
285  2.84  0.  0.
286  2.85  0.  0.
287  2.86  0.  0.
288  2.87  0.  0.
289  2.88  0.  0.
290  2.89  0.  0.
291  2.90  0.  0.
292  2.91  0.  0.
293  2.92  0.  0.
294  2.93  0.  0.
295  2.94  0.  0.
296  2.95  0.  0.
297  2.96  0.  0.
298  2.97  0.  0.
299  2.98  0.  0.
300  2.99  0.  0.
301  3.00  0.  0.
302  3.01  0.  0.
303  3.02  0.  0.
304  3.03  0.  0.
305  3.04  0.  0.
306  3.05  0.  0.
307  3.06  0.  0.
308  3.07  0.  0.
309  3.08  0.  0.
310  3.09  0.  0.
311  3.10  0.  0.
312  3.11  0.  0.
313  3.12  0.  0.
314  3.13  0.  0.
315  3.14  0.  0.
316  3.15  0.  0.
317  3.16  0.  0.
318  3.17  0.  0.
319  3.18  0.  0.
320  3.19  0.  0.
321  3.20  0.  0.
322  3.21  0.  0.
323  3.22  0.  0.
324  3.23  0.  0.
325  3.24  0.  0.
326  3.25  0.  0.
327  3.26  0.  0.
328  3.27  0.  0.
329  3.28  0.  0.
330  3.29  0.  0.
331  3.30  0.  0.
332  3.31  0.  0.
333  3.32  0.  0.
334  3.33  0.  0.
335  3.34  0.  0.
336  3.35  0.  0.
337  3.36  0.  0.
338  3.37  0.  0.
339  3.38  0.  0.
340  3.39  0.  0.
341  3.40  0.  0.
342  3.41  0.  0.
343  3.42  0.  0.
344  3.43  0.  0.
345  3.44  0.  0.
346  3.45  0.  0.
347  3.46  0.  0.
348  3.47  0.  0.
349  3.48  0.  0.
350  3.49  0.  0.
351  3.50  0.  0.
352  3.51  0.  0.
353  3.52  0.  0.
354  3.53  0.  0.
355  3.54  0.  0.
356  3.55  0.  0.
357  3.56  0.  0.
358  3.57  0.  0.
359  3.58  0.  0.
360  3.59  0.  0.
361  3.60  0.  0.
362  3.61  0.  0.
363  3.62  0.  0.
364  3.63  0.  0.
365  3.64  0.  0.
366  3.65  0.  0.
367  3.66  0.  0.
368  3.67  0.  0.
369  3.68  0.  0.
370  3.69  0.  0.
371  3.70  0.  0.
372  3.71  0.  0.
373  3.72  0.  0.
374  3.73  0.  0.
375  3.74  0.  0.
376  3.75  0.  0.
377  3.76  0.  0.
378  3.77  0.  0.
379  3.78  0.  0.
380  3.79  0.  0.
381  3.80  0.  0.
382  3.81  0.  0.
383  3.82  0.  0.
384  3.83  0.  0.
385  3.84  0.  0.
386  3.85  0.  0.
387  3.86  0.  0.
388  3.87  0.  0.
389  3.88  0.  0.
390  3.89  0.  0.
391  3.90  0.  0.
392  3.91  0.  0.
393  3.92  0.  0.
394  3.93  0.  0.
395  3.94  0.  0.
396  3.95  0.  0.
397  3.96  0.  0.
398  3.97  0.  0.
399  3.98  0.  0.
400  3.99  0.  0.
401  4.00  0.  0.
402  4.01  0.  0.
403  4.02  0.  0.
404  4.03  0.  0.
405  4.04  0.  0.
406  4.05  0.  0.
407  4.06  0.  0.
408  4.07  0.  0.
409  4.08  0.  0.
410  4.09  0.  0.
411  4.10  0.  0.
412  4.11  0.  0.
413  4.12  0.  0.
414  4.13  0.  0.
415  4.14  0.  0.
416  4.15  0.  0.
417  4.16  0.  0.
418  4.17  0.  0.
419  4.18  0.  0.
420  4.19  0.  0.
421  4.20  0.  0.
422  4.21  0.  0.
423  4.22  0.  0.
424  4.23  0.  0.
425  4.24  0.  0.
426  4.25  0.  0.
427  4.26  0.  0.
428  4.27  0.  0.
429  4.28  0.  0.
430  4.29  0.  0.
431  4.30  0.  0.
432  4.31  0.  0.
433  4.32  0.  0.
434  4.33  0.  0.
435  4.34  0.  0.
436  4.35  0.  0.
437  4.36  0.  0.
438  4.37  0.  0.
439  4.38  0.  0.
440  4.39  0.  0.
441  4.40  0.  0.
442  4.41  0.  0.
443  4.42  0.  0.
444  4.43  0.  0.
445  4.44  0.  0.
446  4.45  0.  0.
447  4.46  0.  0.
448  4.47  0.  0.
449  4.48  0.  0.
450  4.49  0.  0.
451  4.50  0.  0.
452  4.51  0.  0.
453  4.52  0.  0.
454  4.53  0.  0.
455  4.54  0.  0.
456  4.55  0.  0.
457  4.56  0.  0.
458  4.57  0.  0.
459  4.58  0.  0.
460  4.59  0.  0.
461  4.60  0.  0.
462  4.61  0.  0.
463  4.62  0.  0.
464  4.63  0.  0.
465  4.64  0.  0.
466  4.65  0.  0.
467  4.66  0.  0.
468  4.67  0.  0.
469  4.68  0.  0.
470  4.69  0.  0.
471  4.70  0.  0.
472  4.71  0.  0.
473  4.72  0.  0.
474  4.73  0.  0.
475  4.74  0.  0.
476  4.75  0.  0.
477  4.76  0.  0.
478  4.77  0.  0.
479  4.78  0.  0.
480  4.79  0.  0.
481  4.80  0.  0.
482  4.81  0.  0.
483  4.82  0.  0.
484  4.83  0.  0.
485  4.84  0.  0.
486  4.85  0.  0.
487  4.86  0.  0.
488  4.87  0.  0.
489  4.88  0.  0.
490  4.89  0.  0.
491  4.90  0.  0.
492  4.91  0.  0.
493  4.92  0.  0.
494  4.93  0.  0.
495  4.94  0.  0.
496  4.95  0.  0.
497  4.96  0.  0.
498  4.97  0.  0.
499  4.98  0.  0.
500  4.99  0.  0.
501  5.00  0.  0.
502  5.01  0.  0.
503  5.02  0.  0.
504  5.03  0.  0.
505  5.04  0.  0.
506  5.05  0.  0.
507  5.06  0.  0.
508  5.07  0.  0.
509  5.08  0.  0.
510  5.09  0.  0.
511  5.10  0.  0.
512  5.11  0.  0.
513  5.12  0.  0.
514  5.13  0.  0.
515  5.14  0.  0.
516  5.15  0.  0.
517  5.16  0.  0.
518  5.17  0.  0.
519  5.18  0.  0.
520  5.19  0.  0.
521  5.20  0.  0.
522  5.21  0.  0.
523  5.22  0.  0.
524  5.23  0.  0.
525  5.24  0.  0.
526  5.25  0.  0.
527  5.26  0.  0.
528  5.27  0.  0.
529  5.28  0.  0.
530  5.29  0.  0.
531  5.30  0.  0.
532  5.31  0.  0.
533  5.32  0.  0.
534  5.33  0.  0.
535  5.34  0.  0.
536  5.35  0.  0.
537  5.36  0.  0.
538  5.37  0.  0.
539  5.38  0.  0.
540  5.39  0.  0.
541  5.40  0.  0.
542  5.41  0.  0.
543  5.42  0.  0.
544  5.43  0.  0.
545  5.44  0.  0.
546  5.45  0.  0.
547  5.46  0.  0.
548  5.47  0.  0.
549  5.48  0.  0.
550  5.49  0.  0.
551  5.50  0.  0.
552  5.51  0.  0.
553  5.52  0.  0.
554  5.53  0.  0.
555  5.54  0.  0.
556  5.55  0.  0.
557  5.56  0.  0.
558  5.57  0.  0.
559  5.58  0.  0.
560  5.59  0.  0.
561  5.60  0.  0.
562  5.61  0.  0.
563  5.62  0.  0.
564  5.63  0.  0.
565  5.64  0.  0.
566  5.65  0.  0.
567  5.66  0.  0.
568  5.67  0.  0.
569  5.68  0.  0.
570  5.69  0.  0.
571  5.70  0.  0.
572  5.71  0.  0.
573  5.72  0.  0.
574  5.73  0.  0.
575  5.74  0.  0.
576  5.75  0.  0.
577  5.76  0.  0.
578  5.77  0.  0.
579  5.78  0.  0.
580  5.79  0.  0.
581  5.80  0.  0.
582  5.81  0.  0.
583  5.82  0.  0.
584  5.83  0.  0.
585  5.84  0.  0.
586  5.85  0.  0.
587  5.86  0.  0.
588  5.87  0.  0.
589  5.88  0.  0.
590  5.89  0.  0.
591  5.90  0.  0.
592  5.91  0.  0.
593  5.92  0.  0.
594  5.93  0.  0.
595  5.94  0.  0.
596  5.95  0.  0.
597  5.96  0.  0.
598  5.97  0.  0.
599  5.98  0.  0.
600  5.99  0.  0.
1                         6.6773469526874E+00 -1.1051457456335E-01
1  0.0000000000000E+00  9.4385094184801E-10  2.7804743230053E-08
2  1.0000000000000E-02  1.5244862145156E-03  3.3859806846674E-03
3  2.0000000000000E-02  6.0914109498188E-03  1.3490278154943E-02
4  3.0000000000000E-02  1.3681215496783E-02  3.0152861781606E-02
5  4.0000000000000E-02  2.4261444841900E-02  5.3110007986449E-02
6  5.0000000000000E-02  3.7786960003770E-02  8.1998734807053E-02
7  6.0000000000000E-02  5.4200231508049E-02  1.1636289809126E-01
8  7.0000000000000E-02  7.3431710287880E-02  1.5566083963471E-01
9  8.0000000000000E-02  9.5400271352962E-02  1.9927444977017E-01
10  9.0000000000000E-02  1.2001372471106E-01  2.4651948166748E-01
11  1.0000000000000E-01  1.4716938726631E-01  2.9665693238390E-01
12  1.1000000000000E-01  1.7675470877229E-01  3.4890528691943E-01
13  1.2000000000000E-01  2.0864794439590E-01  4.0245340653347E-01
14  1.3000000000000E-01  2.4271886605899E-01  4.5647383164109E-01
15  1.4000000000000E-01  2.7882950447434E-01  5.1013626292834E-01
16  1.5000000000000E-01  3.1683491368513E-01  5.6262098202550E-01
17  1.6000000000000E-01  3.5658394995127E-01  6.1313197519284E-01
18  1.7000000000000E-01  3.9792005700148E-01  6.6090952995627E-01
19  1.8000000000000E-01  4.4068204998012E-01  7.0524208535597E-01
20  1.9000000000000E-01  4.8470489085580E-01  7.4547713122702E-01
21  2.0000000000000E-01  5.2982044861349E-01  7.8103097043583E-01
22  2.1000000000000E-01  5.7585823821179E-01  8.1139717989727E-01
23  2.2000000000000E-01  6.2264613303648E-01  8.3615363107314E-01
24  2.3000000000000E-01  6.7001104640481E-01  8.5496795803221E-01
25  2.4000000000000E-01  7.1777957855431E-01  8.6760139051799E-01
26  2.5000000000000E-01  7.6577862646602E-01  8.7391090025895E-01
27  2.6000000000000E-01  8.1383595480631E-01  8.7384964039171E-01
28  2.7000000000000E-01  8.6178072720280E-01  8.6746568974677E-01
29  2.8000000000000E-01  9.0944399798005E-01  8.5489914527108E-01
30  2.9000000000000E-01  9.5665916534986E-01  8.3637763643177E-01
31  3.0000000000000E-01  1.0032623878602E+00  8.1221036449045E-01
32  3.1000000000000E-01  1.0490929666414E+00  7.8278079650891E-01
33  3.2000000000000E-01  1.0939936966296E+00  7.4853816833502E-01
34  3.3000000000000E-01  1.1378111904854E+00  7.0998797217317E-01
35  3.4000000000000E-01  1.1803961793476E+00  6.6768162225902E-01
36  3.5000000000000E-01  1.2216037948579E+00  6.2220550630777E-01
37  3.6000000000000E-01  1.2612938370591E+00  5.7416964052272E-01
38  3.7000000000000E-01  1.2993310328020E+00  5.2419615185604E-01
39  3.8000000000000E-01  1.3355852891929E+00  4.7290781279928E-01
40  3.9000000000000E-01  1.3699319463805E+00  4.2091685122761E-01
41  4.0000000000000E-01  1.4022520336184E+00  3.6881425079096E-01
42  4.1000000000000E-01  1.4324325320606E+00  3.1715974617507E-01
43  4.2000000000000E-01  1.4603666471587E+00  2.6647270247421E-01
44  4.3000000000000E-01  1.4859540928446E+00  2.1722404921315E-01
45  4.4000000000000E-01  1.5091013889197E+00  1.6982941759892E-01
46  4.5000000000000E-01  1.5297221722423E+00  1.2464360479508E-01
47  4.6000000000000E-01  1.5477375214327E+00  8.1956461875998E-02
48  4.7000000000000E-01  1.5630762939151E+00  4.1990273158034E-02
49  4.8000000000000E-01  1.5756754732126E+00  4.8986643777924E-03
50  4.9000000000000E-01  1.5854805235192E+00 -2.9232953720105E-02
51  5.0000000000000E-01  1.5924457477209E+00 -6.0385430818427E-02
52  5.1000000000000E-01  1.5965346442370E+00 -8.8602466402684E-02
53  5.2000000000000E-01  1.5977202573274E+00 -1.1398582737755E-01
54  5.3000000000000E-01  1.5959855148816E+00 -1.3668930594657E-01
55  5.4000000000000E-01  1.5913235471766E+00 -1.5691155529409E-01
56  5.5000000000000E-01  1.5837379796919E+00 -1.7488796343518E-01
57  5.6000000000000E-01  1.5732431927995E+00 -1.9088174528691E-01
58  5.7000000000000E-01  1.5598645410226E+00 -2.0517444918490E-01
59  5.8000000000000E-01  1.5436385245812E+00 -2.1805608640528E-01
60  5.9000000000000E-01  1.5246129061211E+00 -2.2981510050877E-01
61  6.0000000000000E-01  1.5028467658566E+00 -2.4072839733933E-01
62  6.1000000000000E-01  1.4784104888375E+00 -2.5105165619392E-01
63  6.2000000000000E-01  1.4513856786866E+00 -2.6101013803385E-01
64  6.3000000000000E-01  1.4218649929173E+00 -2.7079019770436E-01
65  6.4000000000000E-01  1.3899518958374E+00 -2.8053169413412E-01
66  6.5000000000000E-01  1.3557603260544E+00 -2.9032147562731E-01
67  6.6000000000000E-01  1.3194142767001E+00 -3.0018809695554E-01
68  6.7000000000000E-01  1.2810472876773E+00 -3.1009790137485E-01
69  6.8000000000000E-01  1.2408018504740E+00 -3.1995257437390E-01
70  6.9000000000000E-01  1.1988287273688E+00 -3.2958824738758E-01
71  7.0000000000000E-01  1.1552861881517E+00 -3.3877619942215E-01
72  7.1000000000000E-01  1.1103391687684E+00 -3.4722517308651E-01
73  7.2000000000000E-01  1.0641583575584E+00 -3.5458528950306E-01
74  7.3000000000000E-01  1.0169192159650E+00 -3.6045351457274E-01
75  7.4000000000000E-01  9.6880094172468E-01 -3.6438059768405E-01
76  7.5000000000000E-01  9.1998538358550E-01 -3.6587937378180E-01
77  7.6000000000000E-01  8.7065591752682E-01 -3.6443429129343E-01
78  7.7000000000000E-01  8.2099629524612E-01 -3.5951200229920E-01
79  7.8000000000000E-01  7.7118947632752E-01 -3.5057282799932E-01
80  7.9000000000000E-01  7.2141645599528E-01 -3.3708289242967E-01
81  8.0000000000000E-01  6.7185510067662E-01 -3.1852670087723E-01
82  8.1000000000000E-01  6.2267900374396E-01 -2.9441992686786E-01
83  8.2000000000000E-01  5.7405637377317E-01 -2.6432216319147E-01
84  8.3000000000000E-01  5.2614896744060E-01 -2.2784938835165E-01
85  8.4000000000000E-01  4.7911107878977E-01 -1.8468590019054E-01
86  8.5000000000000E-01  4.3308859603411E-01 -1.3459547323978E-01
87  8.6000000000000E-01  3.8821813633196E-01 -7.7431505544100E-02
88  8.7000000000000E-01  3.4462626808620E-01 -1.3145934141688E-02
89  8.8000000000000E-01  3.0242882929599E-01  5.8203284141562E-02
90  8.9000000000000E-01  2.6173034933681E-01  1.3644630868964E-01
91  9.0000000000000E-01  2.2262358028654E-01  2.2129732534984E-01
92  9.1000000000000E-01  1.8518914256665E-01  3.1235236073716E-01
93  9.2000000000000E-01  1.4949528825025E-01  4.0908910015594E-01
94  9.3000000000000E-01  1.1559778392329E-01  5.1086877638737E-01
95  9.4000000000000E-01  8.3539913493339E-02  6.1694016271271E-01
96  9.5000000000000E-01  5.3352599843470E-02  7.2644566863832E-01
97  9.6000000000000E-01  2.5054642748478E-02  8.3842950140940E-01
98  9.7000000000000E-01 -1.3469309722315E-03  9.5184782110848E-01
99  9.8000000000000E-01 -2.5856410477335E-02  1.0655807824624E+00
100  9.9000000000000E-01 -4.8488843824441E-02  1.1784463229903E+00
101  1.0000000000000E+00 -6.9269388731022E-02  1.2892155252780E+00
102  1.0100000000000E+00 -8.8232580228784E-02  1.3966293514817E+00
103  1.0200000000000E+00 -1.0542152525625E-01  1.4994165210654E+00
104  1.0300000000000E+00 -1.2088703509500E-01  1.5963122786427E+00
105  1.0400000000000E+00 -1.3468670727622E-01  1.6860777779857E+00
106  1.0500000000000E+00 -1.4688396915849E-01  1.7675197910887E+00
107  1.0600000000000E+00 -1.5754709580314E-01  1.8395104378146E+00
108  1.0700000000000E+00 -1.6674821504582E-01  1.9010066223669E+00
109  1.0800000000000E+00 -1.7456231278355E-01  1.9510688576735E+00
110  1.0900000000000E+00 -1.8106625146681E-01  1.9888791578763E+00
111  1.1000000000000E+00 -1.8633781461051E-01  2.0137576824569E+00
112  1.1100000000000E+00 -1.9045478981967E-01  2.0251778231335E+00
113  1.1200000000000E+00 -1.9349410237318E-01  2.0227794364077E+00
114  1.1300000000000E+00 -1.9553101082759E-01  2.0063799404687E+00
115  1.1400000000000E+00 -1.9663837540150E-01  1.9759830149249E+00
116  1.1500000000000E+00 -1.9688600908621E-01  1.9317846653586E+00
117  1.1600000000000E+00 -1.9634012050896E-01  1.8741764418564E+00
118  1.1700000000000E+00 -1.9506285655667E-01  1.8037456312434E+00
119  1.1800000000000E+00 -1.9311195166103E-01  1.7212722765419E+00
120  1.1900000000000E+00 -1.9054048944750E-01  1.6277229141645E+00
121  1.2000000000000E+00 -1.8739678118002E-01  1.5242409590169E+00
122  1.2100000000000E+00 -1.8372436407083E-01  1.4121337105131E+00
123  1.2200000000000E+00 -1.7956212109933E-01  1.2928559975531E+00
124  1.2300000000000E+00 -1.7494452246637E-01  1.1679905285781E+00
125  1.2400000000000E+00 -1.6990198721819E-01  1.0392250632336E+00
126  1.2500000000000E+00 -1.6446136189855E-01  9.0832657505336E-01
127  1.2600000000000E+00 -1.5864651130581E-01  7.7711263047211E-01
128  1.2700000000000E+00 -1.5247901456127E-01  6.4742026764901E-01
129  1.2800000000000E+00 -1.4597895770363E-01  5.2107271982655E-01
130  1.2900000000000E+00 -1.3916581190035E-01  3.9984439241433E-01
131  1.3000000000000E+00 -1.3205938410926E-01  2.8542457046008E-01
132  1.3100000000000E+00 -1.2468082460400E-01  1.7938040431468E-01
133  1.3200000000000E+00 -1.1705367316910E-01  8.3119796649109E-02
134  1.3300000000000E+00 -1.0920492297185E-01 -2.1451066354976E-03
135  1.3400000000000E+00 -1.0116607810734E-01 -7.5433035153712E-02
136  1.3500000000000E+00 -9.2974177534409E-02 -1.3602644627494E-01
137  1.3600000000000E+00 -8.4672754599304E-02 -1.8350114001134E-01
138  1.3700000000000E+00 -7.6312697511205E-02 -2.1775156437377E-01
139  1.3800000000000E+00 -6.7952972015286E-02 -2.3901063182334E-01
140  1.3900000000000E+00 -5.9661163002157E-02 -2.4786275190251E-01
141  1.4000000000000E+00 -5.1513786634457E-02 -2.4524865838032E-01
142  1.4100000000000E+00 -4.3596324602546E-02 -2.3246054889843E-01
143  1.4200000000000E+00 -3.6002904544144E-02 -2.1112567015260E-01
144  1.4300000000000E+00 -2.8835714580644E-02 -1.8317826873436E-01
145  1.4400000000000E+00 -2.2207365269750E-02 -1.5086772971729E-01
146  1.4500000000000E+00 -1.6233678993913E-02 -1.1662140801832E-01
147  1.4600000000000E+00 -1.1029490792026E-02 -8.2929432927136E-02
148  1.4700000000000E+00 -6.7085720606478E-03 -5.2281575361058E-02
149  1.4800000000000E+00 -3.3808400547424E-03 -2.7049730279767E-02