Yb    ONCVPSP-4.0.1  r_core=   1.80997   1.50361   1.65463   1.40785
70.0000     24.0000      221106    zatom,zion,pspd
8      11   3     4   600     0    pspcod,pspxc,lmax,lloc,mmax,r2well
5.99000000  0.25000000  0.00000000    rchrg fchrg qchrg
2     2     2     2     0    nproj
1     1           extension_switch
0                         8.2713453858908E+00  8.4593187285490E-01
1  0.0000000000000E+00  2.2338608740569E-10 -7.5363656981686E-10
2  1.0000000000000E-02  4.8271794772823E-02 -5.7441881020088E-03
3  2.0000000000000E-02  9.6511716818277E-02 -1.1530984053475E-02
4  3.0000000000000E-02  1.4468758317942E-01 -1.7401925225876E-02
5  4.0000000000000E-02  1.9276659515794E-01 -2.3396423105602E-02
6  5.0000000000000E-02  2.4071504218024E-01 -2.9550737834343E-02
7  6.0000000000000E-02  2.8849801958749E-01 -3.5896997187360E-02
8  7.0000000000000E-02  3.3607916472555E-01 -4.2462273906747E-02
9  8.0000000000000E-02  3.8342041548742E-01 -4.9267734553164E-02
10  9.0000000000000E-02  4.3048179518692E-01 -5.6327872115233E-02
11  1.0000000000000E-01  4.7722122731980E-01 -6.3649833531659E-02
12  1.1000000000000E-01  5.2359438340330E-01 -7.1232852050970E-02
13  1.2000000000000E-01  5.6955456667917E-01 -7.9067792992411E-02
14  1.3000000000000E-01  6.1505263402539E-01 -8.7136819995827E-02
15  1.4000000000000E-01  6.6003695795152E-01 -9.5413187276793E-02
16  1.5000000000000E-01  7.0445343005879E-01 -1.0386116175486E-01
17  1.6000000000000E-01  7.4824550683373E-01 -1.1243607721862E-01
18  1.7000000000000E-01  7.9135429811979E-01 -1.2108452095226E-01
19  1.8000000000000E-01  8.3371869808053E-01 -1.2974465149608E-01
20  1.9000000000000E-01  8.7527555793867E-01 -1.3834664447092E-01
21  2.0000000000000E-01  9.1595989925117E-01 -1.4681326168432E-01
22  2.1000000000000E-01  9.5570516597073E-01 -1.5506053707807E-01
23  2.2000000000000E-01  9.9444351305255E-01 -1.6299857149163E-01
24  2.3000000000000E-01  1.0321061288993E+00 -1.7053242672709E-01
25  2.4000000000000E-01  1.0686235885014E+00 -1.7756310802484E-01
26  2.5000000000000E-01  1.1039262337317E+00 -1.8398862281682E-01
27  2.6000000000000E-01  1.1379445768927E+00 -1.8970510252931E-01
28  2.7000000000000E-01  1.1706097233052E+00 -1.9460797327706E-01
29  2.8000000000000E-01  1.2018538084600E+00 -1.9859316053705E-01
30  2.9000000000000E-01  1.2316104450476E+00 -2.0155831232410E-01
31  3.0000000000000E-01  1.2598151750201E+00 -2.0340402502097E-01
32  3.1000000000000E-01  1.2864059217488E+00 -2.0403505584839E-01
33  3.2000000000000E-01  1.3113234372948E+00 -2.0336150599956E-01
34  3.3000000000000E-01  1.3345117398363E+00 -2.0129995871013E-01
35  3.4000000000000E-01  1.3559185363750E+00 -1.9777455698683E-01
36  3.5000000000000E-01  1.3754956259808E+00 -1.9271800637266E-01
37  3.6000000000000E-01  1.3931992790360E+00 -1.8607248897576E-01
38  3.7000000000000E-01  1.4089905881869E+00 -1.7779047602504E-01
39  3.8000000000000E-01  1.4228357870177E+00 -1.6783542742602E-01
40  3.9000000000000E-01  1.4347065328159E+00 -1.5618236816094E-01
41  4.0000000000000E-01  1.4445801501923E+00 -1.4281833289309E-01
42  4.1000000000000E-01  1.4524398327612E+00 -1.2774267177650E-01
43  4.2000000000000E-01  1.4582748005558E+00 -1.1096721222078E-01
44  4.3000000000000E-01  1.4620804113574E+00 -9.2516273193802E-02
45  4.4000000000000E-01  1.4638582246403E+00 -7.2426530540083E-02
46  4.5000000000000E-01  1.4636160173776E+00 -5.0746733726573E-02
47  4.6000000000000E-01  1.4613677515018E+00 -2.7537276374075E-02
48  4.7000000000000E-01  1.4571334933723E+00 -2.8696248689072E-03
49  4.8000000000000E-01  1.4509392861480E+00  2.3174388752373E-02
50  4.9000000000000E-01  1.4428169765082E+00  5.0503401614037E-02
51  5.0000000000000E-01  1.4328039976844E+00  7.9017472726494E-02
52  5.1000000000000E-01  1.4209431112662E+00  1.0860914220228E-01
53  5.2000000000000E-01  1.4072821107135E+00  1.3916458403011E-01
54  5.3000000000000E-01  1.3918734899384E+00  1.7056483811838E-01
55  5.4000000000000E-01  1.3747740807139E+00  2.0268710613617E-01
56  5.5000000000000E-01  1.3560446630065E+00  2.3540609468588E-01
57  5.6000000000000E-01  1.3357495526293E+00  2.6859538855304E-01
58  5.7000000000000E-01  1.3139561708451E+00  3.0212883620624E-01
59  5.8000000000000E-01  1.2907346007320E+00  3.3588192937515E-01
60  5.9000000000000E-01  1.2661571352469E+00  3.6973315842311E-01
61  6.0000000000000E-01  1.2402978219765E+00  4.0356532535585E-01
62  6.1000000000000E-01  1.2132320095661E+00  4.3726679667173E-01
63  6.2000000000000E-01  1.1850359007491E+00  4.7073267885842E-01
64  6.3000000000000E-01  1.1557861167723E+00  5.0386590016918E-01
65  6.4000000000000E-01  1.1255592778272E+00  5.3657818336428E-01
66  6.5000000000000E-01  1.0944316038519E+00  5.6879089536127E-01
67  6.6000000000000E-01  1.0624785397725E+00  6.0043576119515E-01
68  6.7000000000000E-01  1.0297744089040E+00  6.3145543132176E-01
69  6.8000000000000E-01  9.9639209783942E-01  6.6180389308957E-01
70  6.9000000000000E-01  9.6240277572362E-01  6.9144671913280E-01
71  7.0000000000000E-01  9.2787565034218E-01  7.2036114747852E-01
72  7.1000000000000E-01  8.9287776296260E-01  7.4853599028703E-01
73  7.2000000000000E-01  8.5747382334986E-01  7.7597137033118E-01
74  7.3000000000000E-01  8.2172608585002E-01  8.0267828653878E-01
75  7.4000000000000E-01  7.8569426689957E-01  8.2867801214460E-01
76  7.5000000000000E-01  7.4943550378195E-01  8.5400133119644E-01
77  7.6000000000000E-01  7.1300435392408E-01  8.7868762130490E-01
78  7.7000000000000E-01  6.7645283350960E-01  9.0278379259255E-01
79  7.8000000000000E-01  6.3983049369137E-01  9.2634309475723E-01
80  7.9000000000000E-01  6.0318453221621E-01  9.4942380599376E-01
81  8.0000000000000E-01  5.6655993783920E-01  9.7208781919363E-01
82  8.1000000000000E-01  5.2999966450519E-01  9.9439914234385E-01
83  8.2000000000000E-01  4.9354483191805E-01  1.0164223313559E+00
84  8.3000000000000E-01  4.5723494880619E-01  1.0382208746576E+00
85  8.4000000000000E-01  4.2110815493006E-01  1.0598555497646E+00
86  8.5000000000000E-01  3.8520147766442E-01  1.0813827727001E+00
87  8.6000000000000E-01  3.4955109882843E-01  1.1028529615549E+00
88  8.7000000000000E-01  3.1419262732875E-01  1.1243089356582E+00
89  8.8000000000000E-01  2.7916137312585E-01  1.1457843717816E+00
90  8.9000000000000E-01  2.4449261802980E-01  1.1673023385096E+00
91  9.0000000000000E-01  2.1022187887717E-01  1.1888739294027E+00
92  9.1000000000000E-01  1.7638515873277E-01  1.2104970148550E+00
93  9.2000000000000E-01  1.4301918189559E-01  1.2321551316202E+00
94  9.3000000000000E-01  1.1016160866313E-01  1.2538165278699E+00
95  9.4000000000000E-01  7.7851226018712E-02  1.2754333803626E+00
96  9.5000000000000E-01  4.6128110647375E-02  1.2969411988685E+00
97  9.6000000000000E-01  1.5033760952292E-02  1.3182584314279E+00
98  9.7000000000000E-01 -1.5388804968465E-02  1.3392862823431E+00
99  9.8000000000000E-01 -4.5094988121783E-02  1.3599087530300E+00
100  9.9000000000000E-01 -7.4038586617931E-02  1.3799929140126E+00
101  1.0000000000000E+00 -1.0217181496739E-01  1.3993894144428E+00
102  1.0100000000000E+00 -1.2944536645037E-01  1.4179332335868E+00
103  1.0200000000000E+00 -1.5580852000723E-01  1.4354446767575E+00
104  1.0300000000000E+00 -1.8120929277366E-01  1.4517306161892E+00
105  1.0400000000000E+00 -2.0559463906256E-01  1.4665859753690E+00
106  1.0500000000000E+00 -2.2891069627637E-01  1.4797954533458E+00
107  1.0600000000000E+00 -2.5110307791609E-01  1.4911354835479E+00
108  1.0700000000000E+00 -2.7211721353594E-01  1.5003764196337E+00
109  1.0800000000000E+00 -2.9189873517036E-01  1.5072849388817E+00
110  1.0900000000000E+00 -3.1039390942736E-01  1.5116266515631E+00
111  1.1000000000000E+00 -3.2755011409421E-01  1.5131689026277E+00
112  1.1100000000000E+00 -3.4331635772629E-01  1.5116837498320E+00
113  1.1200000000000E+00 -3.5764384028126E-01  1.5069511001248E+00
114  1.1300000000000E+00 -3.7048655240471E-01  1.4987619836297E+00
115  1.1400000000000E+00 -3.8180191045735E-01  1.4869219418978E+00
116  1.1500000000000E+00 -3.9155142378458E-01  1.4712545041810E+00
117  1.1600000000000E+00 -3.9970139004894E-01  1.4516047222561E+00
118  1.1700000000000E+00 -4.0622361365843E-01  1.4278427307408E+00
119  1.1800000000000E+00 -4.1109614141163E-01  1.3998672958342E+00
120  1.1900000000000E+00 -4.1430400841890E-01  1.3676093108916E+00
121  1.2000000000000E+00 -4.1583998613824E-01  1.3310351921789E+00
122  1.2100000000000E+00 -4.1570532294382E-01  1.2901501223947E+00
123  1.2200000000000E+00 -4.1391046602763E-01  1.2450010831132E+00
124  1.2300000000000E+00 -4.1047575156913E-01  1.1956796100020E+00
125  1.2400000000000E+00 -4.0543204798826E-01  1.1423241964851E+00
126  1.2500000000000E+00 -3.9882133470026E-01  1.0851222623705E+00
127  1.2600000000000E+00 -3.9069719606340E-01  1.0243115936395E+00
128  1.2700000000000E+00 -3.8112520716633E-01  9.6018114816769E-01
129  1.2800000000000E+00 -3.7018318468413E-01  8.9307110938839E-01
130  1.2900000000000E+00 -3.5796127220899E-01  8.2337205571130E-01
131  1.3000000000000E+00 -3.4456182523201E-01  7.5152309786289E-01
132  1.3100000000000E+00 -3.3009905626728E-01  6.7800881903410E-01
133  1.3200000000000E+00 -3.1469839541729E-01  6.0335483361491E-01
134  1.3300000000000E+00 -2.9849551598504E-01  5.2812175938054E-01
135  1.3400000000000E+00 -2.8163496850806E-01  4.5289737513275E-01
136  1.3500000000000E+00 -2.6426835971947E-01  3.7828671060841E-01
137  1.3600000000000E+00 -2.4655200549269E-01  3.0489978816444E-01
138  1.3700000000000E+00 -2.2864397866905E-01  2.3333670584160E-01
139  1.3800000000000E+00 -2.1070046386347E-01  1.6416971912658E-01
140  1.3900000000000E+00 -1.9287132106106E-01  9.7921939815545E-02
141  1.4000000000000E+00 -1.7529476112205E-01  3.5042297519799E-02
142  1.4100000000000E+00 -1.5809093046290E-01 -2.4124163739083E-02
143  1.4200000000000E+00 -1.4135716443117E-01 -7.9355102225980E-02
144  1.4300000000000E+00 -1.2517619896649E-01 -1.3049810871260E-01
145  1.4400000000000E+00 -1.0962378867738E-01 -1.7742539658185E-01
146  1.4500000000000E+00 -9.4768399456192E-02 -2.2003440730725E-01
147  1.4600000000000E+00 -8.0670816618499E-02 -2.5824900134512E-01
148  1.4700000000000E+00 -6.7383770400841E-02 -2.9202069572710E-01
149  1.4800000000000E+00 -5.4951633377432E-02 -3.2132963848152E-01
150  1.4900000000000E+00 -4.3410195224374E-02 -3.4618529817086E-01
151  1.5000000000000E+00 -3.2786517390900E-02 -3.6662686067675E-01
152  1.5100000000000E+00 -2.3098869057259E-02 -3.8272332952455E-01
153  1.5200000000000E+00 -1.4356746941946E-02 -3.9457331874711E-01
154  1.5300000000000E+00 -6.5609792833512E-03 -4.0230453745387E-01
155  1.5400000000000E+00  2.9608693013141E-04 -4.0607297038554E-01
156  1.5500000000000E+00  6.2303159766891E-03 -4.0606175522491E-01
157  1.5600000000000E+00  1.1265433290571E-02 -4.0247976704175E-01
158  1.5700000000000E+00  1.5432598226117E-02 -3.9555992090504E-01
159  1.5800000000000E+00  1.8769903694621E-02 -3.8555720756483E-01
160  1.5900000000000E+00  2.1321807532232E-02 -3.7274648032834E-01
161  1.6000000000000E+00  2.3138501249326E-02 -3.5742001419778E-01
162  1.6100000000000E+00  2.4275222520679E-02 -3.3988486095065E-01
163  1.6200000000000E+00  2.4791518494209E-02 -3.2046002657103E-01
164  1.6300000000000E+00  2.4750467558719E-02 -2.9947349950372E-01
165  1.6400000000000E+00  2.4217867724070E-02 -2.7725916011850E-01
166  1.6500000000000E+00  2.3261400201323E-02 -2.5415360340279E-01
167  1.6600000000000E+00  2.1949777087515E-02 -2.3049290807346E-01
168  1.6700000000000E+00  2.0351882286813E-02 -2.0660938614636E-01
169  1.6800000000000E+00  1.8535914910312E-02 -1.8282834740324E-01
170  1.6900000000000E+00  1.6568547045304E-02 -1.5946492127900E-01
171  1.7000000000000E+00  1.4514077931985E-02 -1.3682088851408E-01
172  1.7100000000000E+00  1.2433711450112E-02 -1.1518190790947E-01
173  1.7200000000000E+00  1.0384567558347E-02 -9.4813998038577E-02
174  1.7300000000000E+00  8.4163047737050E-03 -7.5952674711608E-02
175  1.7400000000000E+00  6.5746476471332E-03 -5.8813080700354E-02
176  1.7500000000000E+00  4.9034494560242E-03 -4.3596063367058E-02
177  1.7600000000000E+00  3.4394853020255E-03 -3.0472196764300E-02
178  1.7700000000000E+00  2.2124564541331E-03 -1.9581409109928E-02
179  1.7800000000000E+00  1.2447647938953E-03 -1.1033254083286E-02
180  1.7900000000000E+00  5.4939791926120E-04 -4.8891033033629E-03
181  1.8000000000000E+00  1.3712518780360E-04 -1.2283889201225E-03
182  1.8100000000000E+00 -1.1275415185231E-07  1.0571191907429E-06
183  1.8200000000000E+00 -1.2330154283029E-06  1.1170358722136E-05
184  1.83  0. -0.
185  1.84 -0.  0.
186  1.85 -0. -0.
187  1.86  0.  0.
188  1.87  0.  0.
189  1.88  0.  0.
190  1.89  0.  0.
191  1.90  0.  0.
192  1.91  0.  0.
193  1.92  0.  0.
194  1.93  0.  0.
195  1.94  0.  0.
196  1.95  0.  0.
197  1.96  0.  0.
198  1.97  0.  0.
199  1.98  0.  0.
200  1.99  0.  0.
201  2.00  0.  0.
202  2.01  0.  0.
203  2.02  0.  0.
204  2.03  0.  0.
205  2.04  0.  0.
206  2.05  0.  0.
207  2.06  0.  0.
208  2.07  0.  0.
209  2.08  0.  0.
210  2.09  0.  0.
211  2.10  0.  0.
212  2.11  0.  0.
213  2.12  0.  0.
214  2.13  0.  0.
215  2.14  0.  0.
216  2.15  0.  0.
217  2.16  0.  0.
218  2.17  0.  0.
219  2.18  0.  0.
220  2.19  0.  0.
221  2.20  0.  0.
222  2.21  0.  0.
223  2.22  0.  0.
224  2.23  0.  0.
225  2.24  0.  0.
226  2.25  0.  0.
227  2.26  0.  0.
228  2.27  0.  0.
229  2.28  0.  0.
230  2.29  0.  0.
231  2.30  0.  0.
232  2.31  0.  0.
233  2.32  0.  0.
234  2.33  0.  0.
235  2.34  0.  0.
236  2.35  0.  0.
237  2.36  0.  0.
238  2.37  0.  0.
239  2.38  0.  0.
240  2.39  0.  0.
241  2.40  0.  0.
242  2.41  0.  0.
243  2.42  0.  0.
244  2.43  0.  0.
245  2.44  0.  0.
246  2.45  0.  0.
247  2.46  0.  0.
248  2.47  0.  0.
249  2.48  0.  0.
250  2.49  0.  0.
251  2.50  0.  0.
252  2.51  0.  0.
253  2.52  0.  0.
254  2.53  0.  0.
255  2.54  0.  0.
256  2.55  0.  0.
257  2.56  0.  0.
258  2.57  0.  0.
259  2.58  0.  0.
260  2.59  0.  0.
261  2.60  0.  0.
262  2.61  0.  0.
263  2.62  0.  0.
264  2.63  0.  0.
265  2.64  0.  0.
266  2.65  0.  0.
267  2.66  0.  0.
268  2.67  0.  0.
269  2.68  0.  0.
270  2.69  0.  0.
271  2.70  0.  0.
272  2.71  0.  0.
273  2.72  0.  0.
274  2.73  0.  0.
275  2.74  0.  0.
276  2.75  0.  0.
277  2.76  0.  0.
278  2.77  0.  0.
279  2.78  0.  0.
280  2.79  0.  0.
281  2.80  0.  0.
282  2.81  0.  0.
283  2.82  0.  0.
284  2.83  0.  0.
285  2.84  0.  0.
286  2.85  0.  0.
287  2.86  0.  0.
288  2.87  0.  0.
289  2.88  0.  0.
290  2.89  0.  0.
291  2.90  0.  0.
292  2.91  0.  0.
293  2.92  0.  0.
294  2.93  0.  0.
295  2.94  0.  0.
296  2.95  0.  0.
297  2.96  0.  0.
298  2.97  0.  0.
299  2.98  0.  0.
300  2.99  0.  0.
301  3.00  0.  0.
302  3.01  0.  0.
303  3.02  0.  0.
304  3.03  0.  0.
305  3.04  0.  0.
306  3.05  0.  0.
307  3.06  0.  0.
308  3.07  0.  0.
309  3.08  0.  0.
310  3.09  0.  0.
311  3.10  0.  0.
312  3.11  0.  0.
313  3.12  0.  0.
314  3.13  0.  0.
315  3.14  0.  0.
316  3.15  0.  0.
317  3.16  0.  0.
318  3.17  0.  0.
319  3.18  0.  0.
320  3.19  0.  0.
321  3.20  0.  0.
322  3.21  0.  0.
323  3.22  0.  0.
324  3.23  0.  0.
325  3.24  0.  0.
326  3.25  0.  0.
327  3.26  0.  0.
328  3.27  0.  0.
329  3.28  0.  0.
330  3.29  0.  0.
331  3.30  0.  0.
332  3.31  0.  0.
333  3.32  0.  0.
334  3.33  0.  0.
335  3.34  0.  0.
336  3.35  0.  0.
337  3.36  0.  0.
338  3.37  0.  0.
339  3.38  0.  0.
340  3.39  0.  0.
341  3.40  0.  0.
342  3.41  0.  0.
343  3.42  0.  0.
344  3.43  0.  0.
345  3.44  0.  0.
346  3.45  0.  0.
347  3.46  0.  0.
348  3.47  0.  0.
349  3.48  0.  0.
350  3.49  0.  0.
351  3.50  0.  0.
352  3.51  0.  0.
353  3.52  0.  0.
354  3.53  0.  0.
355  3.54  0.  0.
356  3.55  0.  0.
357  3.56  0.  0.
358  3.57  0.  0.
359  3.58  0.  0.
360  3.59  0.  0.
361  3.60  0.  0.
362  3.61  0.  0.
363  3.62  0.  0.
364  3.63  0.  0.
365  3.64  0.  0.
366  3.65  0.  0.
367  3.66  0.  0.
368  3.67  0.  0.
369  3.68  0.  0.
370  3.69  0.  0.
371  3.70  0.  0.
372  3.71  0.  0.
373  3.72  0.  0.
374  3.73  0.  0.
375  3.74  0.  0.
376  3.75  0.  0.
377  3.76  0.  0.
378  3.77  0.  0.
379  3.78  0.  0.
380  3.79  0.  0.
381  3.80  0.  0.
382  3.81  0.  0.
383  3.82  0.  0.
384  3.83  0.  0.
385  3.84  0.  0.
386  3.85  0.  0.
387  3.86  0.  0.
388  3.87  0.  0.
389  3.88  0.  0.
390  3.89  0.  0.
391  3.90  0.  0.
392  3.91  0.  0.
393  3.92  0.  0.
394  3.93  0.  0.
395  3.94  0.  0.
396  3.95  0.  0.
397  3.96  0.  0.
398  3.97  0.  0.
399  3.98  0.  0.
400  3.99  0.  0.
401  4.00  0.  0.
402  4.01  0.  0.
403  4.02  0.  0.
404  4.03  0.  0.
405  4.04  0.  0.
406  4.05  0.  0.
407  4.06  0.  0.
408  4.07  0.  0.
409  4.08  0.  0.
410  4.09  0.  0.
411  4.10  0.  0.
412  4.11  0.  0.
413  4.12  0.  0.
414  4.13  0.  0.
415  4.14  0.  0.
416  4.15  0.  0.
417  4.16  0.  0.
418  4.17  0.  0.
419  4.18  0.  0.
420  4.19  0.  0.
421  4.20  0.  0.
422  4.21  0.  0.
423  4.22  0.  0.
424  4.23  0.  0.
425  4.24  0.  0.
426  4.25  0.  0.
427  4.26  0.  0.
428  4.27  0.  0.
429  4.28  0.  0.
430  4.29  0.  0.
431  4.30  0.  0.
432  4.31  0.  0.
433  4.32  0.  0.
434  4.33  0.  0.
435  4.34  0.  0.
436  4.35  0.  0.
437  4.36  0.  0.
438  4.37  0.  0.
439  4.38  0.  0.
440  4.39  0.  0.
441  4.40  0.  0.
442  4.41  0.  0.
443  4.42  0.  0.
444  4.43  0.  0.
445  4.44  0.  0.
446  4.45  0.  0.
447  4.46  0.  0.
448  4.47  0.  0.
449  4.48  0.  0.
450  4.49  0.  0.
451  4.50  0.  0.
452  4.51  0.  0.
453  4.52  0.  0.
454  4.53  0.  0.
455  4.54  0.  0.
456  4.55  0.  0.
457  4.56  0.  0.
458  4.57  0.  0.
459  4.58  0.  0.
460  4.59  0.  0.
461  4.60  0.  0.
462  4.61  0.  0.
463  4.62  0.  0.
464  4.63  0.  0.
465  4.64  0.  0.
466  4.65  0.  0.
467  4.66  0.  0.
468  4.67  0.  0.
469  4.68  0.  0.
470  4.69  0.  0.
471  4.70  0.  0.
472  4.71  0.  0.
473  4.72  0.  0.
474  4.73  0.  0.
475  4.74  0.  0.
476  4.75  0.  0.
477  4.76  0.  0.
478  4.77  0.  0.
479  4.78  0.  0.
480  4.79  0.  0.
481  4.80  0.  0.
482  4.81  0.  0.
483  4.82  0.  0.
484  4.83  0.  0.
485  4.84  0.  0.
486  4.85  0.  0.
487  4.86  0.  0.
488  4.87  0.  0.
489  4.88  0.  0.
490  4.89  0.  0.
491  4.90  0.  0.
492  4.91  0.  0.
493  4.92  0.  0.
494  4.93  0.  0.
495  4.94  0.  0.
496  4.95  0.  0.
497  4.96  0.  0.
498  4.97  0.  0.
499  4.98  0.  0.
500  4.99  0.  0.
501  5.00  0.  0.
502  5.01  0.  0.
503  5.02  0.  0.
504  5.03  0.  0.
505  5.04  0.  0.
506  5.05  0.  0.
507  5.06  0.  0.
508  5.07  0.  0.
509  5.08  0.  0.
510  5.09  0.  0.
511  5.10  0.  0.
512  5.11  0.  0.
513  5.12  0.  0.
514  5.13  0.  0.
515  5.14  0.  0.
516  5.15  0.  0.
517  5.16  0.  0.
518  5.17  0.  0.
519  5.18  0.  0.
520  5.19  0.  0.
521  5.20  0.  0.
522  5.21  0.  0.
523  5.22  0.  0.
524  5.23  0.  0.
525  5.24  0.  0.
526  5.25  0.  0.
527  5.26  0.  0.
528  5.27  0.  0.
529  5.28  0.  0.
530  5.29  0.  0.
531  5.30  0.  0.
532  5.31  0.  0.
533  5.32  0.  0.
534  5.33  0.  0.
535  5.34  0.  0.
536  5.35  0.  0.
537  5.36  0.  0.
538  5.37  0.  0.
539  5.38  0.  0.
540  5.39  0.  0.
541  5.40  0.  0.
542  5.41  0.  0.
543  5.42  0.  0.
544  5.43  0.  0.
545  5.44  0.  0.
546  5.45  0.  0.
547  5.46  0.  0.
548  5.47  0.  0.
549  5.48  0.  0.
550  5.49  0.  0.
551  5.50  0.  0.
552  5.51  0.  0.
553  5.52  0.  0.
554  5.53  0.  0.
555  5.54  0.  0.
556  5.55  0.  0.
557  5.56  0.  0.
558  5.57  0.  0.
559  5.58  0.  0.
560  5.59  0.  0.
561  5.60  0.  0.
562  5.61  0.  0.
563  5.62  0.  0.
564  5.63  0.  0.
565  5.64  0.  0.
566  5.65  0.  0.
567  5.66  0.  0.
568  5.67  0.  0.
569  5.68  0.  0.
570  5.69  0.  0.
571  5.70  0.  0.
572  5.71  0.  0.
573  5.72  0.  0.
574  5.73  0.  0.
575  5.74  0.  0.
576  5.75  0.  0.
577  5.76  0.  0.
578  5.77  0.  0.
579  5.78  0.  0.
580  5.79  0.  0.
581  5.80  0.  0.
582  5.81  0.  0.
583  5.82  0.  0.
584  5.83  0.  0.
585  5.84  0.  0.
586  5.85  0.  0.
587  5.86  0.  0.
588  5.87  0.  0.
589  5.88  0.  0.
590  5.89  0.  0.
591  5.90  0.  0.
592  5.91  0.  0.
593  5.92  0.  0.
594  5.93  0.  0.
595  5.94  0.  0.
596  5.95  0.  0.
597  5.96  0.  0.
598  5.97  0.  0.
599  5.98  0.  0.
600  5.99  0.  0.
1                         7.1553203884978E+00  2.7748590555018E-01
1  0.0000000000000E+00  7.9763018412393E-10 -8.1345279678846E-09
2  1.0000000000000E-02  1.4025237520786E-03 -1.4277619598934E-03
3  2.0000000000000E-02  5.6045061854751E-03 -5.6932562231583E-03
4  3.0000000000000E-02  1.2589216223285E-02 -1.2743377493819E-02
5  4.0000000000000E-02  2.2328886241805E-02 -2.2490510699640E-02
6  5.0000000000000E-02  3.4784886699540E-02 -3.4813855063803E-02
7  6.0000000000000E-02  4.9907967393971E-02 -4.9561245001552E-02
8  7.0000000000000E-02  6.7638562195206E-02 -6.6551435768860E-02
9  8.0000000000000E-02  8.7907153307996E-02 -8.5576813655630E-02
10  9.0000000000000E-02  1.1063469039002E-01 -1.0640648312560E-01
11  1.0000000000000E-01  1.3573305921837E-01 -1.2878967679757E-01
12  1.1000000000000E-01  1.6310559405937E-01 -1.5245942865566E-01
13  1.2000000000000E-01  1.9264762746853E-01 -1.7713644647282E-01
14  1.3000000000000E-01  2.2424707093617E-01 -2.0253311621248E-01
15  1.4000000000000E-01  2.5778501960347E-01 -2.2835756919516E-01
16  1.5000000000000E-01  2.9313637420803E-01 -2.5431774211704E-01
17  1.6000000000000E-01  3.3017047347590E-01 -2.8012536059543E-01
18  1.7000000000000E-01  3.6875173035782E-01 -3.0549977878033E-01
19  1.8000000000000E-01  4.0874026580508E-01 -3.3017161067381E-01
20  1.9000000000000E-01  4.4999253418843E-01 -3.5388609308043E-01
21  2.0000000000000E-01  4.9236193497290E-01 -3.7640612548950E-01
22  2.1000000000000E-01  5.3569940585980E-01 -3.9751493856171E-01
23  2.2000000000000E-01  5.7985399328275E-01 -4.1701835013598E-01
24  2.3000000000000E-01  6.2467339688134E-01 -4.3474657565035E-01
25  2.4000000000000E-01  6.7000448535876E-01 -4.5055556843152E-01
26  2.5000000000000E-01  7.1569378194156E-01 -4.6432787428843E-01
27  2.6000000000000E-01  7.6158791848232E-01 -4.7597299407601E-01
28  2.7000000000000E-01  8.0753405806273E-01 -4.8542725720008E-01
29  2.8000000000000E-01  8.5338028674684E-01 -4.9265321823913E-01
30  2.9000000000000E-01  8.9897597588556E-01 -4.9763859778494E-01
31  3.0000000000000E-01  9.4417211706717E-01 -5.0039479708692E-01
32  3.1000000000000E-01  9.8882163242924E-01 -5.0095502396112E-01
33  3.2000000000000E-01  1.0327796635824E+00 -4.9937207454543E-01
34  3.3000000000000E-01  1.0759038428323E+00 -4.9571582171375E-01
35  3.4000000000000E-01  1.1180545507134E+00 -4.9007046618499E-01
36  3.5000000000000E-01  1.1590951640632E+00 -4.8253161047927E-01
37  3.6000000000000E-01  1.1988922989522E+00 -4.7320321880606E-01
38  3.7000000000000E-01  1.2373160527561E+00 -4.6219452766303E-01
39  3.8000000000000E-01  1.2742402494991E+00 -4.4961697234676E-01
40  3.9000000000000E-01  1.3095426923178E+00 -4.3558119372270E-01
41  4.0000000000000E-01  1.3431054265035E+00 -4.2019418748726E-01
42  4.1000000000000E-01  1.3748150160759E+00 -4.0355665482226E-01
43  4.2000000000000E-01  1.4045628362426E+00 -3.8576060885613E-01
44  4.3000000000000E-01  1.4322453834076E+00 -3.6688728579428E-01
45  4.4000000000000E-01  1.4577646036379E+00 -3.4700540307088E-01
46  4.5000000000000E-01  1.4810282396765E+00 -3.2616979953212E-01
47  4.6000000000000E-01  1.5019501957393E+00 -3.0442048463050E-01
48  4.7000000000000E-01  1.5204509184578E+00 -2.8178211504539E-01
49  4.8000000000000E-01  1.5364577914528E+00 -2.5826390821524E-01
50  4.9000000000000E-01  1.5499055401681E+00 -2.3385999314476E-01
51  5.0000000000000E-01  1.5607366427724E+00 -2.0855018971436E-01
52  5.1000000000000E-01  1.5689017421735E+00 -1.8230119874921E-01
53  5.2000000000000E-01  1.5743600535011E+00 -1.5506817647517E-01
54  5.3000000000000E-01  1.5770797608166E+00 -1.2679665887226E-01
55  5.4000000000000E-01  1.5770383963179E+00 -9.7424793990139E-02
56  5.5000000000000E-01  1.5742231949381E+00 -6.6885833666021E-02
57  5.6000000000000E-01  1.5686314169978E+00 -3.5110830414054E-02
58  5.7000000000000E-01  1.5602706314734E+00 -2.0314806519549E-03
59  5.8000000000000E-01  1.5491589524953E+00  3.2416948008049E-02
60  5.9000000000000E-01  1.5353252218873E+00  6.8292669881686E-02
61  6.0000000000000E-01  1.5188091309114E+00  1.0564448014374E-01
62  6.1000000000000E-01  1.4996612748828E+00  1.4450896457346E-01
63  6.2000000000000E-01  1.4779431349626E+00  1.8490788341933E-01
64  6.3000000000000E-01  1.4537269822152E+00  2.2684578970561E-01
65  6.4000000000000E-01  1.4270956999235E+00  2.7030793808806E-01
66  6.5000000000000E-01  1.3981425211675E+00  3.1525853499246E-01
67  6.6000000000000E-01  1.3669706797875E+00  3.6163937433601E-01
68  6.7000000000000E-01  1.3336929740369E+00  4.0936889575485E-01
69  6.8000000000000E-01  1.2984312434831E+00  4.5834169407869E-01
70  6.9000000000000E-01  1.2613157609956E+00  5.0842849995818E-01
71  7.0000000000000E-01  1.2224845429626E+00  5.5947664222909E-01
72  7.1000000000000E-01  1.1820825821705E+00  6.1131099296624E-01
73  7.2000000000000E-01  1.1402610090430E+00  6.6373538642153E-01
74  7.3000000000000E-01  1.0971761881483E+00  7.1653449334571E-01
75  7.4000000000000E-01  1.0529887580149E+00  7.6947612274392E-01
76  7.5000000000000E-01  1.0078626233399E+00  8.2231391410140E-01
77  7.6000000000000E-01  9.6196390959436E-01  8.7479037470886E-01
78  7.7000000000000E-01  9.1545989082147E-01  9.2664020908939E-01
79  7.8000000000000E-01  8.6851790206451E-01  9.7759388082949E-01
80  7.9000000000000E-01  8.2130424833879E-01  1.0273813414880E+00
81  8.0000000000000E-01  7.7398312236710E-01  1.0757358568138E+00
82  8.1000000000000E-01  7.2671554342082E-01  1.1223978573452E+00
83  8.2000000000000E-01  6.7965832954527E-01  1.1671187386710E+00
84  8.3000000000000E-01  6.3296311519643E-01  1.2096645362464E+00
85  8.4000000000000E-01  5.8677542587656E-01  1.2498194007153E+00
86  8.5000000000000E-01  5.4123382073450E-01  1.2873888021853E+00
87  8.6000000000000E-01  4.9646911329843E-01  1.3222023958110E+00
88  8.7000000000000E-01  4.5260367954551E-01  1.3541164863198E+00
89  8.8000000000000E-01  4.0975086139659E-01  1.3830160356784E+00
90  8.9000000000000E-01  3.6801447247037E-01  1.4088161658613E+00
91  9.0000000000000E-01  3.2748841155789E-01  1.4314631175198E+00
92  9.1000000000000E-01  2.8825638780352E-01  1.4509346351236E+00
93  9.2000000000000E-01  2.5039176002455E-01  1.4672397597086E+00
94  9.3000000000000E-01  2.1395749098987E-01  1.4804180215375E+00
95  9.4000000000000E-01  1.7900621583179E-01  1.4905380365888E+00
96  9.5000000000000E-01  1.4558042210790E-01  1.4976955226449E+00
97  9.6000000000000E-01  1.1371273738506E-01  1.5020107626567E+00
98  9.7000000000000E-01  8.3426318609297E-02  1.5036255548194E+00
99  9.8000000000000E-01  5.4735335975683E-02  1.5026997002129E+00
100  9.9000000000000E-01  2.7645542544582E-02  1.4994070897319E+00
101  1.0000000000000E+00  2.1549194841208E-03  1.4939314621870E+00
102  1.0100000000000E+00 -2.1745614424874E-02  1.4864619146925E+00
103  1.0200000000000E+00 -4.4071441488781E-02  1.4771882546194E+00
104  1.0300000000000E+00 -6.4843445420113E-02  1.4662962893083E+00
105  1.0400000000000E+00 -8.4087187464897E-02  1.4539631552691E+00
106  1.0500000000000E+00 -1.0183207311715E-01  1.4403527925945E+00
107  1.0600000000000E+00 -1.1811052459360E-01  1.4256116726844E+00
108  1.0700000000000E+00 -1.3295717442807E-01  1.4098648879833E+00
109  1.0800000000000E+00 -1.4640809551889E-01  1.3932127112109E+00
110  1.0900000000000E+00 -1.5850008271284E-01  1.3757277284083E+00
111  1.1000000000000E+00 -1.6927000053497E-01  1.3574526449907E+00
112  1.1100000000000E+00 -1.7875421096506E-01  1.3383988568043E+00
113  1.1200000000000E+00 -1.8698809421888E-01  1.3185458689087E+00
114  1.1300000000000E+00 -1.9400567430983E-01  1.2978416333891E+00
115  1.1400000000000E+00 -1.9983935973973E-01  1.2762038639008E+00
116  1.1500000000000E+00 -2.0451980799610E-01  1.2535223688536E+00
117  1.1600000000000E+00 -2.0807592060790E-01  1.2296624270785E+00
118  1.1700000000000E+00 -2.1053497333111E-01  1.2044692094670E+00
119  1.1800000000000E+00 -2.1192288359451E-01  1.1777732274164E+00
120  1.1900000000000E+00 -2.1226461461477E-01  1.1493967637653E+00
121  1.2000000000000E+00 -2.1158471260732E-01  1.1191612144755E+00
122  1.2100000000000E+00 -2.0990797021613E-01  1.0868952390745E+00
123  1.2200000000000E+00 -2.0726020571129E-01  1.0524435853154E+00
124  1.2300000000000E+00 -2.0366914357588E-01  1.0156764179115E+00
125  1.2400000000000E+00 -1.9916537785101E-01  9.7649894285766E-01
126  1.2500000000000E+00 -1.9378339500581E-01  9.3486107757808E-01
127  1.2600000000000E+00 -1.8756262807539E-01  8.9076687233544E-01
128  1.2700000000000E+00 -1.8054850841420E-01  8.4428334049004E-01
129  1.2800000000000E+00 -1.7279347555845E-01  7.9554830358889E-01
130  1.2900000000000E+00 -1.6435789934743E-01  7.4477680166067E-01
131  1.3000000000000E+00 -1.5531086163036E-01  6.9226555964691E-01
132  1.3100000000000E+00 -1.4573073751188E-01  6.3839493703117E-01
133  1.3200000000000E+00 -1.3570550809930E-01  5.8362771892972E-01
134  1.3300000000000E+00 -1.2533272812387E-01  5.2850403338373E-01
135  1.3400000000000E+00 -1.1471906256833E-01  4.7363160095875E-01
136  1.3500000000000E+00 -1.0397929639806E-01  4.1967043787334E-01
137  1.3600000000000E+00 -9.3234710761866E-02  3.6731104363212E-01
138  1.3700000000000E+00 -8.2610707413577E-02  3.1724500703619E-01
139  1.3800000000000E+00 -7.2233550704238E-02  2.7012686137186E-01
140  1.3900000000000E+00 -6.2226082334042E-02  2.2652589877524E-01
141  1.4000000000000E+00 -5.2702262199502E-02  1.8686671212131E-01
142  1.4100000000000E+00 -4.3760274884403E-02  1.5135568341485E-01
143  1.4200000000000E+00 -3.5477175399578E-02  1.1993548156847E-01
144  1.4300000000000E+00 -2.7917890753715E-02  9.2434840983211E-02
145  1.4400000000000E+00 -2.1147190359103E-02  6.8716154829210E-02
146  1.4500000000000E+00 -1.5224907075884E-02  4.8657605057657E-02
147  1.4600000000000E+00 -1.0204298753981E-02  3.2146202217940E-02
148  1.4700000000000E+00 -6.1347937266618E-03  1.9093144378921E-02
149  1.4800000000000E+00 -3.0630203266204E-03  9.4395610841878E-03