Yb    ONCVPSP-4.0.1  r_core=   2.00372   1.60588   1.91009   1.40785
70.0000     24.0000      241101    zatom,zion,pspd
8      11   3     4   600     0    pspcod,pspxc,lmax,lloc,mmax,r2well
5.99000000  4.00000000  0.00000000    rchrg fchrg qchrg
2     2     2     2     0    nproj
1     1           extension_switch
0                         6.6580809887874E+00  9.4668074371254E-01
1  0.0000000000000E+00  8.0433770754951E-11 -2.2756804253510E-10
2  1.0000000000000E-02  4.5881608209526E-02 -1.5651890885949E-03
3  2.0000000000000E-02  9.1726878915769E-02 -3.1598991339965E-03
4  3.0000000000000E-02  1.3749933492856E-01 -4.8131157520493E-03
5  4.0000000000000E-02  1.8316222176214E-01 -6.5527597175700E-03
6  5.0000000000000E-02  2.2867837416228E-01 -8.4051690878685E-03
7  6.0000000000000E-02  2.7401008878586E-01 -1.0394598616675E-02
8  7.0000000000000E-02  3.1911900498883E-01 -1.2542741952822E-02
9  8.0000000000000E-02  3.6396599559765E-01 -1.4868281890461E-02
10  9.0000000000000E-02  4.0851106944058E-01 -1.7386473657182E-02
11  1.0000000000000E-01  4.5271328729776E-01 -2.0108765895487E-02
12  1.1000000000000E-01  4.9653069279513E-01 -2.3042463614907E-02
13  1.2000000000000E-01  5.3992025961786E-01 -2.6190436969996E-02
14  1.3000000000000E-01  5.8283785625448E-01 -2.9550879257441E-02
15  1.4000000000000E-01  6.2523822930664E-01 -3.3117117027889E-02
16  1.5000000000000E-01  6.6707500621075E-01 -3.6877474679481E-02
17  1.6000000000000E-01  7.0830071802033E-01 -4.0815195345340E-02
18  1.7000000000000E-01  7.4886684269205E-01 -4.4908419311799E-02
19  1.8000000000000E-01  7.8872386910719E-01 -4.9130220613400E-02
20  1.9000000000000E-01  8.2782138184451E-01 -5.3448701849980E-02
21  2.0000000000000E-01  8.6610816650294E-01 -5.7827146666985E-02
22  2.1000000000000E-01  9.0353233515517E-01 -6.2224228737422E-02
23  2.2000000000000E-01  9.4004147129747E-01 -6.6594275489576E-02
24  2.3000000000000E-01  9.7558279344978E-01 -7.0887584243507E-02
25  2.4000000000000E-01  1.0101033363547E+00 -7.5050787858474E-02
26  2.5000000000000E-01  1.0435501485271E+00 -7.9027266457185E-02
27  2.6000000000000E-01  1.0758705047177E+00 -8.2757601288010E-02
28  2.7000000000000E-01  1.1070121316814E+00 -8.6180066317071E-02
29  2.8000000000000E-01  1.1369234454753E+00 -8.9231152714570E-02
30  2.9000000000000E-01  1.1655537983691E+00 -9.1846121017420E-02
31  3.0000000000000E-01  1.1928537333188E+00 -9.3959575418585E-02
32  3.1000000000000E-01  1.2187752438445E+00 -9.5506054355543E-02
33  3.2000000000000E-01  1.2432720370598E+00 -9.6420631349759E-02
34  3.3000000000000E-01  1.2662997975331E+00 -9.6639519888965E-02
35  3.4000000000000E-01  1.2878164496065E+00 -9.6100676046207E-02
36  3.5000000000000E-01  1.3077824157763E+00 -9.4744392496895E-02
37  3.6000000000000E-01  1.3261608687300E+00 -9.2513877626936E-02
38  3.7000000000000E-01  1.3429179746583E+00 -8.9355813523991E-02
39  3.8000000000000E-01  1.3580231254979E+00 -8.5220886808031E-02
40  3.9000000000000E-01  1.3714491578303E+00 -8.0064286487277E-02
41  4.0000000000000E-01  1.3831725562478E+00 -7.3846163318796E-02
42  4.1000000000000E-01  1.3931736391078E+00 -6.6532045508358E-02
43  4.2000000000000E-01  1.4014367247307E+00 -5.8093205997851E-02
44  4.3000000000000E-01  1.4079502762460E+00 -4.8506977058358E-02
45  4.4000000000000E-01  1.4127070234652E+00 -3.7757008427741E-02
46  4.5000000000000E-01  1.4157040603482E+00 -2.5833465799299E-02
47  4.6000000000000E-01  1.4169429168364E+00 -1.2733167077952E-02
48  4.7000000000000E-01  1.4164296040458E+00  1.5403455347067E-03
49  4.8000000000000E-01  1.4141746320461E+00  1.6976798889280E-02
50  4.9000000000000E-01  1.4101929996948E+00  3.3559248236387E-02
51  5.0000000000000E-01  1.4045041562483E+00  5.1264202422936E-02
52  5.1000000000000E-01  1.3971319347276E+00  7.0061814063522E-02
53  5.2000000000000E-01  1.3881044572776E+00  8.9916133087766E-02
54  5.3000000000000E-01  1.3774540130227E+00  1.1078542134577E-01
55  5.4000000000000E-01  1.3652169091791E+00  1.3262252524860E-01
56  5.5000000000000E-01  1.3514332964409E+00  1.5537530273713E-01
57  5.6000000000000E-01  1.3361469699089E+00  1.7898710021853E-01
58  5.7000000000000E-01  1.3194051470676E+00  2.0339727449183E-01
59  5.8000000000000E-01  1.3012582245466E+00  2.2854175411100E-01
60  5.9000000000000E-01  1.2817595156172E+00  2.5435363411105E-01
61  6.0000000000000E-01  1.2609649705703E+00  2.8076379755795E-01
62  6.1000000000000E-01  1.2389328823050E+00  3.0770155698145E-01
63  6.2000000000000E-01  1.2157235796118E+00  3.3509530841757E-01
64  6.3000000000000E-01  1.1913991107757E+00  3.6287319052892E-01
65  6.4000000000000E-01  1.1660229202311E+00  3.9096374109052E-01
66  6.5000000000000E-01  1.1396595210941E+00  4.1929654302969E-01
67  6.6000000000000E-01  1.1123741664532E+00  4.4780285219420E-01
68  6.7000000000000E-01  1.0842325223354E+00  4.7641619909353E-01
69  6.8000000000000E-01  1.0553003452700E+00  5.0507295701664E-01
70  6.9000000000000E-01  1.0256431673478E+00  5.3371286917467E-01
71  7.0000000000000E-01  9.9532599162321E-01  5.6227952784815E-01
72  7.1000000000000E-01  9.6441300062642E-01  5.9072079893417E-01
73  7.2000000000000E-01  9.3296728064423E-01  6.1898918578627E-01
74  7.3000000000000E-01  9.0105056429427E-01  6.4704212681557E-01
75  7.4000000000000E-01  8.6872299375556E-01  6.7484222197105E-01
76  7.5000000000000E-01  8.3604290683237E-01  7.0235738393531E-01
77  7.6000000000000E-01  8.0306664781907E-01  7.2956091065275E-01
78  7.7000000000000E-01  7.6984840490230E-01  7.5643147664441E-01
79  7.8000000000000E-01  7.3644007558571E-01  7.8295304144931E-01
80  7.9000000000000E-01  7.0289116135391E-01  8.0911467445894E-01
81  8.0000000000000E-01  6.6924869250774E-01  8.3491029637108E-01
82  8.1000000000000E-01  6.3555718380567E-01  8.6033833847235E-01
83  8.2000000000000E-01  6.0185862123770E-01  8.8540132195744E-01
84  8.3000000000000E-01  5.6819247994225E-01  9.1010536049702E-01
85  8.4000000000000E-01  5.3459577295420E-01  9.3445959026673E-01
86  8.5000000000000E-01  5.0110313014758E-01  9.5847553263787E-01
87  8.6000000000000E-01  4.6774690641140E-01  9.8216639569543E-01
88  8.7000000000000E-01  4.3455731777371E-01  1.0055463216839E+00
89  8.8000000000000E-01  4.0156260387117E-01  1.0286295883754E+00
90  8.9000000000000E-01  3.6878921485020E-01  1.0514297732004E+00
91  9.0000000000000E-01  3.3626202048406E-01  1.0739588897701E+00
92  9.1000000000000E-01  3.0400453900111E-01  1.0962265071434E+00
93  9.2000000000000E-01  2.7203918284316E-01  1.1182388628436E+00
94  9.3000000000000E-01  2.4038751831368E-01  1.1399979812037E+00
95  9.4000000000000E-01  2.0907053583368E-01  1.1615008091052E+00
96  9.5000000000000E-01  1.7810892730146E-01  1.1827383815740E+00
97  9.6000000000000E-01  1.4752336685198E-01  1.2036950299928E+00
98  9.7000000000000E-01  1.1733479113490E-01  1.2243476458902E+00
99  9.8000000000000E-01  8.7564675078446E-02  1.2446650133514E+00
100  9.9000000000000E-01  5.8235298980942E-02  1.2646072230762E+00
101  1.0000000000000E+00  2.9370002675007E-02  1.2841251809683E+00
102  1.0100000000000E+00  9.9342244294344E-04  1.3031602238760E+00
103  1.0200000000000E+00 -2.6868293672953E-02  1.3216438547191E+00
104  1.0300000000000E+00 -5.4187296521756E-02  1.3394976087110E+00
105  1.0400000000000E+00 -8.0933876777474E-02  1.3566330617287E+00
106  1.0500000000000E+00 -1.0707634040021E-01  1.3729519910751E+00
107  1.0600000000000E+00 -1.3258092275325E-01  1.3883466979228E+00
108  1.0700000000000E+00 -1.5741174534151E-01  1.4027004996086E+00
109  1.0800000000000E+00 -1.8153081892561E-01  1.4158883986583E+00
110  1.0900000000000E+00 -2.0489809649982E-01  1.4277779339500E+00
111  1.1000000000000E+00 -2.2747157929894E-01  1.4382302177567E+00
112  1.1100000000000E+00 -2.4920747861097E-01  1.4471011605315E+00
113  1.1200000000000E+00 -2.7006043571458E-01  1.4542428831965E+00
114  1.1300000000000E+00 -2.8998380172509E-01  1.4595053143481E+00
115  1.1400000000000E+00 -3.0892997851232E-01  1.4627379671769E+00
116  1.1500000000000E+00 -3.2685082114040E-01  1.4637918879984E+00
117  1.1600000000000E+00 -3.4369810146308E-01  1.4625217650722E+00
118  1.1700000000000E+00 -3.5942403157872E-01  1.4587881828284E+00
119  1.1800000000000E+00 -3.7398184479760E-01  1.4524600026902E+00
120  1.1900000000000E+00 -3.8732643058243E-01  1.4434168473340E+00
121  1.2000000000000E+00 -3.9941501859214E-01  1.4315516604689E+00
122  1.2100000000000E+00 -4.1020790545275E-01  1.4167733089327E+00
123  1.2200000000000E+00 -4.1966921621434E-01  1.3990091881535E+00
124  1.2300000000000E+00 -4.2776769058171E-01  1.3782077856708E+00
125  1.2400000000000E+00 -4.3447748193686E-01  1.3543411504627E+00
126  1.2500000000000E+00 -4.3977895488481E-01  1.3274072082580E+00
127  1.2600000000000E+00 -4.4365946451032E-01  1.2974318546738E+00
128  1.2700000000000E+00 -4.4611409775173E-01  1.2644707489951E+00
129  1.2800000000000E+00 -4.4714635423453E-01  1.2286107215607E+00
130  1.2900000000000E+00 -4.4676874053900E-01  1.1899706969724E+00
131  1.3000000000000E+00 -4.4500324821151E-01  1.1487020237304E+00
132  1.3100000000000E+00 -4.4188168182896E-01  1.1049880883008E+00
133  1.3200000000000E+00 -4.3744579905465E-01  1.0590430779317E+00
134  1.3300000000000E+00 -4.3174721989491E-01  1.0111097417933E+00
135  1.3400000000000E+00 -4.2484705725297E-01  9.6145598415145E-01
136  1.3500000000000E+00 -4.1681521530586E-01  9.1037010605454E-01
137  1.3600000000000E+00 -4.0772929625857E-01  8.5815449361191E-01
138  1.3700000000000E+00 -3.9767304955945E-01  8.0511753104946E-01
139  1.3800000000000E+00 -3.8673429075047E-01  7.5156349553882E-01
140  1.3900000000000E+00 -3.7500220920087E-01  6.9778016557549E-01
141  1.4000000000000E+00 -3.6256398384909E-01  6.4402389247073E-01
142  1.4100000000000E+00 -3.4950055398715E-01  5.9050151443578E-01
143  1.4200000000000E+00 -3.3588338806935E-01  5.3735914846779E-01
144  1.4300000000000E+00 -3.2177993563725E-01  4.8471704579061E-01
145  1.4400000000000E+00 -3.0725877881540E-01  4.3269932832166E-01
146  1.4500000000000E+00 -2.9238945253934E-01  3.8143379882057E-01
147  1.4600000000000E+00 -2.7724214713792E-01  3.3105116628698E-01
148  1.4700000000000E+00 -2.6188736149553E-01  2.8168402932162E-01
149  1.4800000000000E+00 -2.4639554253624E-01  2.3346581524799E-01
150  1.4900000000000E+00 -2.3083671500493E-01  1.8652968853202E-01
151  1.5000000000000E+00 -2.1528010426158E-01  1.4100743553067E-01
152  1.5100000000000E+00 -1.9979375467890E-01  9.7028332394942E-02
153  1.5200000000000E+00 -1.8444414776787E-01  5.4718010117986E-02
154  1.5300000000000E+00 -1.6929582330346E-01  1.4197326566839E-02
155  1.5400000000000E+00 -1.5441100653237E-01 -2.4418745616744E-02
156  1.5500000000000E+00 -1.3984924548811E-01 -6.1022201846601E-02
157  1.5600000000000E+00 -1.2566706156932E-01 -9.5513049821320E-02
158  1.5700000000000E+00 -1.1191761683247E-01 -1.2780030428201E-01
159  1.5800000000000E+00 -9.8650401269700E-02 -1.5780292210609E-01
160  1.5900000000000E+00 -8.5910943185965E-02 -1.8545066804198E-01
161  1.6000000000000E+00 -7.3740545623139E-02 -2.1068490188915E-01
162  1.6100000000000E+00 -6.2176051589753E-02 -2.3345927848957E-01
163  1.6200000000000E+00 -5.1249640588700E-02 -2.5374035275932E-01
164  1.6300000000000E+00 -4.0988658696113E-02 -2.7150808269908E-01
165  1.6400000000000E+00 -3.1415484152930E-02 -2.8675622423180E-01
166  1.6500000000000E+00 -2.2547430114771E-02 -2.9949261270293E-01
167  1.6600000000000E+00 -1.4396685882699E-02 -3.0973932687285E-01
168  1.6700000000000E+00 -6.9702975891155E-03 -3.1753273231683E-01
169  1.6800000000000E+00 -2.7018896881118E-04 -3.2292340220256E-01
170  1.6900000000000E+00  5.7067775455144E-03 -3.2597591465221E-01
171  1.7000000000000E+00  1.0968699514717E-02 -3.2676852696360E-01
172  1.7100000000000E+00  1.5528493458895E-02 -3.2539272813455E-01
173  1.7200000000000E+00  1.9403714976235E-02 -3.2195267236765E-01
174  1.7300000000000E+00  2.2616341240467E-02 -3.1656449729006E-01
175  1.7400000000000E+00  2.5192517447845E-02 -3.0935553168904E-01
176  1.7500000000000E+00  2.7162269279530E-02 -3.0046339920854E-01
177  1.7600000000000E+00  2.8559183275860E-02 -2.9003502356825E-01
178  1.7700000000000E+00  2.9420058223193E-02 -2.7822554524685E-01
179  1.7800000000000E+00  2.9784530339224E-02 -2.6519715816338E-01
180  1.7900000000000E+00  2.9694674497607E-02 -2.5111787262182E-01
181  1.8000000000000E+00  2.9194586358204E-02 -2.3616022064420E-01
182  1.8100000000000E+00  2.8329947746871E-02 -2.2049991004251E-01
183  1.8200000000000E+00  2.7147579596736E-02 -2.0431444097096E-01
184  1.8300000000000E+00  2.5694986187183E-02 -1.8778169640592E-01
185  1.8400000000000E+00  2.4019894669695E-02 -1.7107851889854E-01
186  1.8500000000000E+00  2.2169793941111E-02 -1.5437928616896E-01
187  1.8600000000000E+00  2.0191476923215E-02 -1.3785449809247E-01
188  1.8700000000000E+00  1.8130591860408E-02 -1.2166939203900E-01
189  1.8800000000000E+00  1.6031191474706E-02 -1.0598255628268E-01
190  1.8900000000000E+00  1.3935345006527E-02 -9.0944724134146E-02
191  1.9000000000000E+00  1.1882690470048E-02 -7.6697413972553E-02
192  1.9100000000000E+00  9.9093766578655E-03 -6.3369828519177E-02
193  1.9200000000000E+00  8.0472908704329E-03 -5.1076520863801E-02
194  1.9300000000000E+00  6.3273945144248E-03 -3.9926779170846E-02
195  1.9400000000000E+00  4.7770648309325E-03 -3.0017154004083E-02
196  1.9500000000000E+00  3.4194280772284E-03 -2.1429511927707E-02
197  1.9600000000000E+00  2.2732422988673E-03 -1.4230634479874E-02
198  1.9700000000000E+00  1.3528780825904E-03 -8.4727249589338E-03
199  1.9800000000000E+00  6.6727824063568E-04 -4.1871906980312E-03
200  1.9900000000000E+00  2.2057664859559E-04 -1.3889394816612E-03
201  2.0000000000000E+00  2.4024070509263E-05 -1.5210552004598E-04
202  2.0100000000000E+00 -7.5325183332888E-06  4.7775869276920E-05
203  2.0200000000000E+00  2.3799003931133E-06 -1.5045082537146E-05
204  2.03 -0.  0.
205  2.04 -0.  0.
206  2.05 -0. -0.
207  2.06  0.  0.
208  2.07  0.  0.
209  2.08  0.  0.
210  2.09  0.  0.
211  2.10  0.  0.
212  2.11  0.  0.
213  2.12  0.  0.
214  2.13  0.  0.
215  2.14  0.  0.
216  2.15  0.  0.
217  2.16  0.  0.
218  2.17  0.  0.
219  2.18  0.  0.
220  2.19  0.  0.
221  2.20  0.  0.
222  2.21  0.  0.
223  2.22  0.  0.
224  2.23  0.  0.
225  2.24  0.  0.
226  2.25  0.  0.
227  2.26  0.  0.
228  2.27  0.  0.
229  2.28  0.  0.
230  2.29  0.  0.
231  2.30  0.  0.
232  2.31  0.  0.
233  2.32  0.  0.
234  2.33  0.  0.
235  2.34  0.  0.
236  2.35  0.  0.
237  2.36  0.  0.
238  2.37  0.  0.
239  2.38  0.  0.
240  2.39  0.  0.
241  2.40  0.  0.
242  2.41  0.  0.
243  2.42  0.  0.
244  2.43  0.  0.
245  2.44  0.  0.
246  2.45  0.  0.
247  2.46  0.  0.
248  2.47  0.  0.
249  2.48  0.  0.
250  2.49  0.  0.
251  2.50  0.  0.
252  2.51  0.  0.
253  2.52  0.  0.
254  2.53  0.  0.
255  2.54  0.  0.
256  2.55  0.  0.
257  2.56  0.  0.
258  2.57  0.  0.
259  2.58  0.  0.
260  2.59  0.  0.
261  2.60  0.  0.
262  2.61  0.  0.
263  2.62  0.  0.
264  2.63  0.  0.
265  2.64  0.  0.
266  2.65  0.  0.
267  2.66  0.  0.
268  2.67  0.  0.
269  2.68  0.  0.
270  2.69  0.  0.
271  2.70  0.  0.
272  2.71  0.  0.
273  2.72  0.  0.
274  2.73  0.  0.
275  2.74  0.  0.
276  2.75  0.  0.
277  2.76  0.  0.
278  2.77  0.  0.
279  2.78  0.  0.
280  2.79  0.  0.
281  2.80  0.  0.
282  2.81  0.  0.
283  2.82  0.  0.
284  2.83  0.  0.
285  2.84  0.  0.
286  2.85  0.  0.
287  2.86  0.  0.
288  2.87  0.  0.
289  2.88  0.  0.
290  2.89  0.  0.
291  2.90  0.  0.
292  2.91  0.  0.
293  2.92  0.  0.
294  2.93  0.  0.
295  2.94  0.  0.
296  2.95  0.  0.
297  2.96  0.  0.
298  2.97  0.  0.
299  2.98  0.  0.
300  2.99  0.  0.
301  3.00  0.  0.
302  3.01  0.  0.
303  3.02  0.  0.
304  3.03  0.  0.
305  3.04  0.  0.
306  3.05  0.  0.
307  3.06  0.  0.
308  3.07  0.  0.
309  3.08  0.  0.
310  3.09  0.  0.
311  3.10  0.  0.
312  3.11  0.  0.
313  3.12  0.  0.
314  3.13  0.  0.
315  3.14  0.  0.
316  3.15  0.  0.
317  3.16  0.  0.
318  3.17  0.  0.
319  3.18  0.  0.
320  3.19  0.  0.
321  3.20  0.  0.
322  3.21  0.  0.
323  3.22  0.  0.
324  3.23  0.  0.
325  3.24  0.  0.
326  3.25  0.  0.
327  3.26  0.  0.
328  3.27  0.  0.
329  3.28  0.  0.
330  3.29  0.  0.
331  3.30  0.  0.
332  3.31  0.  0.
333  3.32  0.  0.
334  3.33  0.  0.
335  3.34  0.  0.
336  3.35  0.  0.
337  3.36  0.  0.
338  3.37  0.  0.
339  3.38  0.  0.
340  3.39  0.  0.
341  3.40  0.  0.
342  3.41  0.  0.
343  3.42  0.  0.
344  3.43  0.  0.
345  3.44  0.  0.
346  3.45  0.  0.
347  3.46  0.  0.
348  3.47  0.  0.
349  3.48  0.  0.
350  3.49  0.  0.
351  3.50  0.  0.
352  3.51  0.  0.
353  3.52  0.  0.
354  3.53  0.  0.
355  3.54  0.  0.
356  3.55  0.  0.
357  3.56  0.  0.
358  3.57  0.  0.
359  3.58  0.  0.
360  3.59  0.  0.
361  3.60  0.  0.
362  3.61  0.  0.
363  3.62  0.  0.
364  3.63  0.  0.
365  3.64  0.  0.
366  3.65  0.  0.
367  3.66  0.  0.
368  3.67  0.  0.
369  3.68  0.  0.
370  3.69  0.  0.
371  3.70  0.  0.
372  3.71  0.  0.
373  3.72  0.  0.
374  3.73  0.  0.
375  3.74  0.  0.
376  3.75  0.  0.
377  3.76  0.  0.
378  3.77  0.  0.
379  3.78  0.  0.
380  3.79  0.  0.
381  3.80  0.  0.
382  3.81  0.  0.
383  3.82  0.  0.
384  3.83  0.  0.
385  3.84  0.  0.
386  3.85  0.  0.
387  3.86  0.  0.
388  3.87  0.  0.
389  3.88  0.  0.
390  3.89  0.  0.
391  3.90  0.  0.
392  3.91  0.  0.
393  3.92  0.  0.
394  3.93  0.  0.
395  3.94  0.  0.
396  3.95  0.  0.
397  3.96  0.  0.
398  3.97  0.  0.
399  3.98  0.  0.
400  3.99  0.  0.
401  4.00  0.  0.
402  4.01  0.  0.
403  4.02  0.  0.
404  4.03  0.  0.
405  4.04  0.  0.
406  4.05  0.  0.
407  4.06  0.  0.
408  4.07  0.  0.
409  4.08  0.  0.
410  4.09  0.  0.
411  4.10  0.  0.
412  4.11  0.  0.
413  4.12  0.  0.
414  4.13  0.  0.
415  4.14  0.  0.
416  4.15  0.  0.
417  4.16  0.  0.
418  4.17  0.  0.
419  4.18  0.  0.
420  4.19  0.  0.
421  4.20  0.  0.
422  4.21  0.  0.
423  4.22  0.  0.
424  4.23  0.  0.
425  4.24  0.  0.
426  4.25  0.  0.
427  4.26  0.  0.
428  4.27  0.  0.
429  4.28  0.  0.
430  4.29  0.  0.
431  4.30  0.  0.
432  4.31  0.  0.
433  4.32  0.  0.
434  4.33  0.  0.
435  4.34  0.  0.
436  4.35  0.  0.
437  4.36  0.  0.
438  4.37  0.  0.
439  4.38  0.  0.
440  4.39  0.  0.
441  4.40  0.  0.
442  4.41  0.  0.
443  4.42  0.  0.
444  4.43  0.  0.
445  4.44  0.  0.
446  4.45  0.  0.
447  4.46  0.  0.
448  4.47  0.  0.
449  4.48  0.  0.
450  4.49  0.  0.
451  4.50  0.  0.
452  4.51  0.  0.
453  4.52  0.  0.
454  4.53  0.  0.
455  4.54  0.  0.
456  4.55  0.  0.
457  4.56  0.  0.
458  4.57  0.  0.
459  4.58  0.  0.
460  4.59  0.  0.
461  4.60  0.  0.
462  4.61  0.  0.
463  4.62  0.  0.
464  4.63  0.  0.
465  4.64  0.  0.
466  4.65  0.  0.
467  4.66  0.  0.
468  4.67  0.  0.
469  4.68  0.  0.
470  4.69  0.  0.
471  4.70  0.  0.
472  4.71  0.  0.
473  4.72  0.  0.
474  4.73  0.  0.
475  4.74  0.  0.
476  4.75  0.  0.
477  4.76  0.  0.
478  4.77  0.  0.
479  4.78  0.  0.
480  4.79  0.  0.
481  4.80  0.  0.
482  4.81  0.  0.
483  4.82  0.  0.
484  4.83  0.  0.
485  4.84  0.  0.
486  4.85  0.  0.
487  4.86  0.  0.
488  4.87  0.  0.
489  4.88  0.  0.
490  4.89  0.  0.
491  4.90  0.  0.
492  4.91  0.  0.
493  4.92  0.  0.
494  4.93  0.  0.
495  4.94  0.  0.
496  4.95  0.  0.
497  4.96  0.  0.
498  4.97  0.  0.
499  4.98  0.  0.
500  4.99  0.  0.
501  5.00  0.  0.
502  5.01  0.  0.
503  5.02  0.  0.
504  5.03  0.  0.
505  5.04  0.  0.
506  5.05  0.  0.
507  5.06  0.  0.
508  5.07  0.  0.
509  5.08  0.  0.
510  5.09  0.  0.
511  5.10  0.  0.
512  5.11  0.  0.
513  5.12  0.  0.
514  5.13  0.  0.
515  5.14  0.  0.
516  5.15  0.  0.
517  5.16  0.  0.
518  5.17  0.  0.
519  5.18  0.  0.
520  5.19  0.  0.
521  5.20  0.  0.
522  5.21  0.  0.
523  5.22  0.  0.
524  5.23  0.  0.
525  5.24  0.  0.
526  5.25  0.  0.
527  5.26  0.  0.
528  5.27  0.  0.
529  5.28  0.  0.
530  5.29  0.  0.
531  5.30  0.  0.
532  5.31  0.  0.
533  5.32  0.  0.
534  5.33  0.  0.
535  5.34  0.  0.
536  5.35  0.  0.
537  5.36  0.  0.
538  5.37  0.  0.
539  5.38  0.  0.
540  5.39  0.  0.
541  5.40  0.  0.
542  5.41  0.  0.
543  5.42  0.  0.
544  5.43  0.  0.
545  5.44  0.  0.
546  5.45  0.  0.
547  5.46  0.  0.
548  5.47  0.  0.
549  5.48  0.  0.
550  5.49  0.  0.
551  5.50  0.  0.
552  5.51  0.  0.
553  5.52  0.  0.
554  5.53  0.  0.
555  5.54  0.  0.
556  5.55  0.  0.
557  5.56  0.  0.
558  5.57  0.  0.
559  5.58  0.  0.
560  5.59  0.  0.
561  5.60  0.  0.
562  5.61  0.  0.
563  5.62  0.  0.
564  5.63  0.  0.
565  5.64  0.  0.
566  5.65  0.  0.
567  5.66  0.  0.
568  5.67  0.  0.
569  5.68  0.  0.
570  5.69  0.  0.
571  5.70  0.  0.
572  5.71  0.  0.
573  5.72  0.  0.
574  5.73  0.  0.
575  5.74  0.  0.
576  5.75  0.  0.
577  5.76  0.  0.
578  5.77  0.  0.
579  5.78  0.  0.
580  5.79  0.  0.
581  5.80  0.  0.
582  5.81  0.  0.
583  5.82  0.  0.
584  5.83  0.  0.
585  5.84  0.  0.
586  5.85  0.  0.
587  5.86  0.  0.
588  5.87  0.  0.
589  5.88  0.  0.
590  5.89  0.  0.
591  5.90  0.  0.
592  5.91  0.  0.
593  5.92  0.  0.
594  5.93  0.  0.
595  5.94  0.  0.
596  5.95  0.  0.
597  5.96  0.  0.
598  5.97  0.  0.
599  5.98  0.  0.
600  5.99  0.  0.
1                         6.2001429387269E+00  5.3453619617448E-01
1  0.0000000000000E+00 -1.6083846754444E-10 -7.2950049473386E-10
2  1.0000000000000E-02  1.2367590338738E-03 -8.9427250314776E-04
3  2.0000000000000E-02  4.9429244112672E-03 -3.5685458758816E-03
4  3.0000000000000E-02  1.1106171620792E-02 -7.9972586388249E-03
5  4.0000000000000E-02  1.9705995466420E-02 -1.4138044461076E-02
6  5.0000000000000E-02  3.0713763962313E-02 -2.1932085300329E-02
7  6.0000000000000E-02  4.4092794588736E-02 -3.1304603645274E-02
8  7.0000000000000E-02  5.9798453671455E-02 -4.2165491637770E-02
9  8.0000000000000E-02  7.7778279807875E-02 -5.4410074122833E-02
10  9.0000000000000E-02  9.7972132383229E-02 -6.7920001879505E-02
11  1.0000000000000E-01  1.2031236629254E-01 -8.2564270416631E-02
12  1.1000000000000E-01  1.4472403400322E-01 -9.8200358769925E-02
13  1.2000000000000E-01  1.7112511605480E-01 -1.1467548170901E-01
14  1.3000000000000E-01  1.9942678099337E-01 -1.3182794765707E-01
15  1.4000000000000E-01  2.2953367557847E-01 -1.4948861345099E-01
16  1.5000000000000E-01  2.6134424587855E-01 -1.6748242583430E-01
17  1.6000000000000E-01  2.9475108959164E-01 -1.8563003829777E-01
18  1.7000000000000E-01  3.2964133959296E-01 -2.0374949058139E-01
19  1.8000000000000E-01  3.6589707832683E-01 -2.2165793684915E-01
20  1.9000000000000E-01  4.0339578223402E-01 -2.3917340727520E-01
21  2.0000000000000E-01  4.4201079494444E-01 -2.5611658656141E-01
22  2.1000000000000E-01  4.8161182748043E-01 -2.7231259177927E-01
23  2.2000000000000E-01  5.2206548321617E-01 -2.8759273092273E-01
24  2.3000000000000E-01  5.6323580483766E-01 -3.0179622271061E-01
25  2.4000000000000E-01  6.0498484005492E-01 -3.1477185751986E-01
26  2.5000000000000E-01  6.4717322234792E-01 -3.2637957889814E-01
27  2.6000000000000E-01  6.8966076259063E-01 -3.3649196492765E-01
28  2.7000000000000E-01  7.3230704700709E-01 -3.4499558881915E-01
29  2.8000000000000E-01  7.7497203657950E-01 -3.5179223853235E-01
30  2.9000000000000E-01  8.1751666276294E-01 -3.5679997596418E-01
31  3.0000000000000E-01  8.5980341417288E-01 -3.5995401733692E-01
32  3.1000000000000E-01  9.0169690880903E-01 -3.6120741786165E-01
33  3.2000000000000E-01  9.4306444636855E-01 -3.6053154555045E-01
34  3.3000000000000E-01  9.8377653528803E-01 -3.5791633119994E-01
35  3.4000000000000E-01  1.0237073893401E+00 -3.5337028405547E-01
36  3.5000000000000E-01  1.0627353888975E+00 -3.4692026546960E-01
37  3.6000000000000E-01  1.1007435023642E+00 -3.3861101596328E-01
38  3.7000000000000E-01  1.1376196637554E+00 -3.2850443444725E-01
39  3.8000000000000E-01  1.1732571029804E+00 -3.1667861192269E-01
40  3.9000000000000E-01  1.2075546260393E+00 -3.0322662570361E-01
41  4.0000000000000E-01  1.2404168430691E+00 -2.8825510403485E-01
42  4.1000000000000E-01  1.2717543429667E+00 -2.7188257485562E-01
43  4.2000000000000E-01  1.3014838141483E+00 -2.5423761631580E-01
44  4.3000000000000E-01  1.3295281118762E+00 -2.3545683042114E-01
45  4.4000000000000E-01  1.3558162734648E+00 -2.1568266479188E-01
46  4.5000000000000E-01  1.3802834835632E+00 -1.9506111089785E-01
47  4.6000000000000E-01  1.4028709925742E+00 -1.7373931020789E-01
48  4.7000000000000E-01  1.4235259920979E+00 -1.5186310239430E-01
49  4.8000000000000E-01  1.4422014520596E+00 -1.2957455199846E-01
50  4.9000000000000E-01  1.4588559248853E+00 -1.0700949172928E-01
51  5.0000000000000E-01  1.4734533226972E+00 -8.4295121777743E-02
52  5.1000000000000E-01  1.4859626740119E+00 -6.1547705141960E-02
53  5.2000000000000E-01  1.4963578668174E+00 -3.8870398927522E-02
54  5.3000000000000E-01  1.5046173851626E+00 -1.6351260891712E-02
55  5.4000000000000E-01  1.5107240465233E+00  5.9385308820062E-03
56  5.5000000000000E-01  1.5146647471826E+00  2.7946209364601E-02
57  5.6000000000000E-01  1.5164302226946E+00  4.9638667958550E-02
58  5.7000000000000E-01  1.5160148301808E+00  7.1003398231279E-02
59  5.8000000000000E-01  1.5134163587333E+00  9.2049090414668E-02
60  5.9000000000000E-01  1.5086358735903E+00  1.1280587571469E-01
61  6.0000000000000E-01  1.5016775989933E+00  1.3332519463531E-01
62  6.1000000000000E-01  1.4925488437620E+00  1.5367928113849E-01
63  6.2000000000000E-01  1.4812599726360E+00  1.7396025845227E-01
64  6.3000000000000E-01  1.4678244253488E+00  1.9427884861436E-01
65  6.4000000000000E-01  1.4522587842439E+00  2.1476270429647E-01
66  6.5000000000000E-01  1.4345828900306E+00  2.3555437798808E-01
67  6.6000000000000E-01  1.4148200040356E+00  2.5680895011753E-01
68  6.7000000000000E-01  1.3929970140555E+00  2.7869134403360E-01
69  6.8000000000000E-01  1.3691446796873E+00  3.0137336184949E-01
70  6.9000000000000E-01  1.3432979118287E+00  3.2503048084371E-01
71  7.0000000000000E-01  1.3154960799216E+00  3.4983845530851E-01
72  7.1000000000000E-01  1.2857833394975E+00  3.7596977332740E-01
73  7.2000000000000E-01  1.2542089716814E+00  4.0359002184911E-01
74  7.3000000000000E-01  1.2208277255534E+00  4.3285421651705E-01
75  7.4000000000000E-01  1.1857001536719E+00  4.6390315493184E-01
76  7.5000000000000E-01  1.1488929306492E+00  4.9685985330463E-01
77  7.6000000000000E-01  1.1104791444456E+00  5.3182612675319E-01
78  7.7000000000000E-01  1.0705385500359E+00  5.6887937276823E-01
79  7.8000000000000E-01  1.0291577752959E+00  6.0806961561730E-01
80  7.9000000000000E-01  9.8643046937061E-01  6.4941686666713E-01
81  8.0000000000000E-01  9.4245738441109E-01  6.9290885181039E-01
82  8.1000000000000E-01  8.9734638240042E-01  7.3849915242739E-01
83  8.2000000000000E-01  8.5121235982412E-01  7.8610580065621E-01
84  8.3000000000000E-01  8.0417708415515E-01  8.3561036326811E-01
85  8.4000000000000E-01  7.5636893750642E-01  8.8685754124765E-01
86  8.5000000000000E-01  7.0792256432780E-01  9.3965530437045E-01
87  8.6000000000000E-01  6.5897842166526E-01  9.9377557178892E-01
88  8.7000000000000E-01  6.0968223222734E-01  1.0489554410136E+00
89  8.8000000000000E-01  5.6018434228620E-01  1.1048989588695E+00
90  8.9000000000000E-01  5.1063898824327E-01  1.1612794191698E+00
91  9.0000000000000E-01  4.6120347747663E-01  1.2177421631440E+00
92  9.1000000000000E-01  4.1203729082275E-01  1.2739078502527E+00
93  9.2000000000000E-01  3.6330111569195E-01  1.3293761590686E+00
94  9.3000000000000E-01  3.1515582033909E-01  1.3837298705748E+00
95  9.4000000000000E-01  2.6776138117436E-01  1.4365392796564E+00
96  9.5000000000000E-01  2.2127577617021E-01  1.4873668748927E+00
97  9.6000000000000E-01  1.7585385837138E-01  1.5357722221068E+00
98  9.7000000000000E-01  1.3164622421813E-01  1.5813169836052E+00
99  9.8000000000000E-01  8.8798091828132E-02  1.6235700027269E+00
100  9.9000000000000E-01  4.7448204531766E-02  1.6621123822789E+00
101  1.0000000000000E+00  7.7277748088616E-03  1.6965424857019E+00
102  1.0100000000000E+00 -3.0240516674945E-02  1.7264807914028E+00
103  1.0200000000000E+00 -6.6343452984869E-02  1.7515745335811E+00
104  1.0300000000000E+00 -1.0047813088515E-01  1.7715020670386E+00
105  1.0400000000000E+00 -1.3255271728533E-01  1.7859768988119E+00
106  1.0500000000000E+00 -1.6248710217822E-01  1.7947513359097E+00
107  1.0600000000000E+00 -1.9021343990726E-01  1.7976197058488E+00
108  1.0700000000000E+00 -2.1567657262658E-01  1.7944211149164E+00
109  1.0800000000000E+00 -2.3883433200155E-01  1.7850417179376E+00
110  1.0900000000000E+00 -2.5965771750919E-01  1.7694164826572E+00
111  1.1000000000000E+00 -2.7813095206687E-01  1.7475304413505E+00
112  1.1100000000000E+00 -2.9425141811189E-01  1.7194194318091E+00
113  1.1200000000000E+00 -3.0802947959678E-01  1.6851703390835E+00
114  1.1300000000000E+00 -3.1948819760633E-01  1.6449208580795E+00
115  1.1400000000000E+00 -3.2866294937138E-01  1.5988588050137E+00
116  1.1500000000000E+00 -3.3560096228723E-01  1.5472210125513E+00
117  1.1600000000000E+00 -3.4036077607264E-01  1.4902918488979E+00
118  1.1700000000000E+00 -3.4301164736087E-01  1.4284014049110E+00
119  1.1800000000000E+00 -3.4363291172756E-01  1.3619233951491E+00
120  1.1900000000000E+00 -3.4231331836336E-01  1.2912728184054E+00
121  1.2000000000000E+00 -3.3915035222955E-01  1.2169034204315E+00
122  1.2100000000000E+00 -3.3424955751414E-01  1.1393049959080E+00
123  1.2200000000000E+00 -3.2772387449429E-01  1.0590005581283E+00
124  1.2300000000000E+00 -3.1969299941762E-01  9.7654339293507E-01
125  1.2400000000000E+00 -3.1028277370089E-01  8.9251399805010E-01
126  1.2500000000000E+00 -2.9962460456563E-01  8.0751688988464E-01
127  1.2600000000000E+00 -2.8785491407785E-01  7.2217723675800E-01
128  1.2700000000000E+00 -2.7511460745933E-01  6.3713725032315E-01
129  1.2800000000000E+00 -2.6154854439172E-01  5.5305223547345E-01
130  1.2900000000000E+00 -2.4730498877790E-01  4.7058616283351E-01
131  1.3000000000000E+00 -2.3253500308158E-01  3.9040658722894E-01
132  1.3100000000000E+00 -2.1739174285018E-01  3.1317868992892E-01
133  1.3200000000000E+00 -2.0202959524936E-01  2.3955817159246E-01
134  1.3300000000000E+00 -1.8660309244993E-01  1.7018266695112E-01