Yb    ONCVPSP-4.0.1  r_core=   2.00372   1.60588   1.91009   1.40785
70.0000     24.0000      241206    zatom,zion,pspd
8      11   3     4   600     0    pspcod,pspxc,lmax,lloc,mmax,r2well
5.99000000  4.00000000  0.00000000    rchrg fchrg qchrg
2     2     2     2     0    nproj
1     1           extension_switch
0                         6.6449808736335E+00  9.3923533265428E-01
1  0.0000000000000E+00  8.0361772791804E-11 -2.2770291902008E-10
2  1.0000000000000E-02  4.5841444426327E-02 -1.5970902944447E-03
3  2.0000000000000E-02  9.1646689809382E-02 -3.2236924648457E-03
4  3.0000000000000E-02  1.3737939709659E-01 -4.9087829756287E-03
5  4.0000000000000E-02  1.8300294929455E-01 -6.6802733110388E-03
6  5.0000000000000E-02  2.2848031767261E-01 -8.5644920340287E-03
7  6.0000000000000E-02  2.7377393411782E-01 -1.0585684141370E-02
8  7.0000000000000E-02  3.1884557159679E-01 -1.2765533211100E-02
9  8.0000000000000E-02  3.6365623459955E-01 -1.5122711610707E-02
10  9.0000000000000E-02  4.0816606134145E-01 -1.7672463753864E-02
11  1.0000000000000E-01  4.5233423938199E-01 -2.0426227062396E-02
12  1.1000000000000E-01  4.9611893618588E-01 -2.3391294911760E-02
13  1.2000000000000E-01  5.3947724600183E-01 -2.6570525416038E-02
14  1.3000000000000E-01  5.8236515427103E-01 -2.9962099446160E-02
15  1.4000000000000E-01  6.2473752060016E-01 -3.3559330777149E-02
16  1.5000000000000E-01  6.6654808114626E-01 -3.7350530731302E-02
17  1.6000000000000E-01  7.0774947106270E-01 -4.1318929129172E-02
18  1.7000000000000E-01  7.4829326745037E-01 -4.5442652784499E-02
19  1.8000000000000E-01  7.8813005304683E-01 -4.9694762188133E-02
20  1.9000000000000E-01  8.2720950067054E-01 -5.4043346425101E-02
21  2.0000000000000E-01  8.6548047822032E-01 -5.8451675764494E-02
22  2.1000000000000E-01  9.0289117381234E-01 -6.2878410758918E-02
23  2.2000000000000E-01  9.3938924042206E-01 -6.7277866095680E-02
24  2.3000000000000E-01  9.7492195918685E-01 -7.1600326860810E-02
25  2.4000000000000E-01  1.0094364203201E+00 -7.5792414315646E-02
26  2.5000000000000E-01  1.0428797203905E+00 -7.9797497749817E-02
27  2.6000000000000E-01  1.0751991745329E+00 -8.3556148469155E-02
28  2.7000000000000E-01  1.1063425419825E+00 -8.7006631508129E-02
29  2.8000000000000E-01  1.1362582631614E+00 -9.0085430228695E-02
30  2.9000000000000E-01  1.1648957064016E+00 -9.2727798585161E-02
31  3.0000000000000E-01  1.1922054222587E+00 -9.4868335503200E-02
32  3.1000000000000E-01  1.2181394032585E+00 -9.6441575543047E-02
33  3.2000000000000E-01  1.2426513468286E+00 -9.7382589796738E-02
34  3.3000000000000E-01  1.2656969190948E+00 -9.7627590809047E-02
35  3.4000000000000E-01  1.2872340171736E+00 -9.7114535214427E-02
36  3.5000000000000E-01  1.3072230275641E+00 -9.5783717749317E-02
37  3.6000000000000E-01  1.3256270782387E+00 -9.3578350331701E-02
38  3.7000000000000E-01  1.3424122820506E+00 -9.0445119998549E-02
39  3.8000000000000E-01  1.3575479691174E+00 -8.6334719656499E-02
40  3.9000000000000E-01  1.3710069059063E+00 -8.1202345830910E-02
41  4.0000000000000E-01  1.3827654988327E+00 -7.5008157892213E-02
42  4.1000000000000E-01  1.3928039802954E+00 -6.7717693593798E-02
43  4.2000000000000E-01  1.4011065752013E+00 -5.9302236169685E-02
44  4.3000000000000E-01  1.4076616461868E+00 -4.9739128710249E-02
45  4.4000000000000E-01  1.4124618159113E+00 -3.9012032055129E-02
46  4.5000000000000E-01  1.4155040649900E+00 -2.7111123010670E-02
47  4.6000000000000E-01  1.4167898043369E+00 -1.4033230308800E-02
48  4.7000000000000E-01  1.4163249209081E+00  2.1809363008653E-04
49  4.8000000000000E-01  1.4141197960700E+00  1.5632566392229E-02
50  4.9000000000000E-01  1.4101892960578E+00  3.2193235287012E-02
51  5.0000000000000E-01  1.4045527342413E+00  4.9876602933440E-02
52  5.1000000000000E-01  1.3972338051728E+00  6.8652817841275E-02
53  5.2000000000000E-01  1.3882604906504E+00  8.8485928386318E-02
54  5.3000000000000E-01  1.3776649382938E+00  1.0933419786003E-01
55  5.4000000000000E-01  1.3654833133879E+00  1.3115047756840E-01
56  5.5000000000000E-01  1.3517556250046E+00  1.5388263427155E-01
57  5.6000000000000E-01  1.3365255276657E+00  1.7747402760056E-01
58  5.7000000000000E-01  1.3198401000447E+00  2.0186403247105E-01
59  5.8000000000000E-01  1.3017496024384E+00  2.2698860093863E-01
60  5.9000000000000E-01  1.2823072149488E+00  2.5278085741930E-01
61  6.0000000000000E-01  1.2615687585189E+00  2.7917172073174E-01
62  6.1000000000000E-01  1.2395924011390E+00  3.0609054601741E-01
63  6.2000000000000E-01  1.2164383517057E+00  3.3346577926103E-01
64  6.3000000000000E-01  1.1921685441476E+00  3.6122561687498E-01
65  6.4000000000000E-01  1.1668463145465E+00  3.8929866263069E-01
66  6.5000000000000E-01  1.1405360740706E+00  4.1761457411994E-01
67  6.6000000000000E-01  1.1133029805980E+00  4.4610469091415E-01
68  6.7000000000000E-01  1.0852126119399E+00  4.7470263666016E-01
69  6.8000000000000E-01  1.0563306435831E+00  5.0334488750834E-01
70  6.9000000000000E-01  1.0267225338461E+00  5.3197129951355E-01
71  7.0000000000000E-01  9.9645321929252E-01  5.6052558798000E-01
72  7.1000000000000E-01  9.6558682316916E-01  5.8895575213601E-01
73  7.2000000000000E-01  9.3418637952543E-01  6.1721443902131E-01
74  7.3000000000000E-01  9.0231357554079E-01  6.4525924104494E-01
75  7.4000000000000E-01  8.7002851442425E-01  6.7305292232012E-01
76  7.5000000000000E-01  8.3738950106664E-01  7.0056356960066E-01
77  7.6000000000000E-01  8.0445285241761E-01  7.2776466442361E-01
78  7.7000000000000E-01  7.7127273432957E-01  7.5463507389967E-01
79  7.8000000000000E-01  7.3790102636102E-01  7.8115895847841E-01
80  7.9000000000000E-01  7.0438721576417E-01  8.0732559594213E-01
81  8.0000000000000E-01  6.7077832159867E-01  8.3312912184200E-01
82  8.1000000000000E-01  6.3711884961713E-01  8.5856818757357E-01
83  8.2000000000000E-01  6.0345077826064E-01  8.8364553828821E-01
84  8.3000000000000E-01  5.6981357578764E-01  9.0836751384201E-01
85  8.4000000000000E-01  5.3624424823809E-01  9.3274347698551E-01
86  8.5000000000000E-01  5.0277741761097E-01  9.5678517398738E-01
87  8.6000000000000E-01  4.6944542930841E-01  9.8050603385239E-01
88  8.7000000000000E-01  4.3627848757700E-01  1.0039204132317E+00
89  8.8000000000000E-01  4.0330481735901E-01  1.0270427950197E+00
90  8.9000000000000E-01  3.7055085065474E-01  1.0498869494819E+00
91  9.0000000000000E-01  3.3804143519571E-01  1.0724650675503E+00
92  9.1000000000000E-01  3.0580006293777E-01  1.0947868766507E+00
93  9.2000000000000E-01  2.7384911560698E-01  1.1168587500856E+00
94  9.3000000000000E-01  2.4221012426990E-01  1.1386828215716E+00
95  9.4000000000000E-01  2.1090403965702E-01  1.1602561170262E+00
96  9.5000000000000E-01  1.7995150974428E-01  1.1815697161010E+00
97  9.6000000000000E-01  1.4937316089540E-01  1.2026079562631E+00
98  9.7000000000000E-01  1.1918987868838E-01  1.2233476924310E+00
99  9.8000000000000E-01  8.9423084394800E-02  1.2437576252685E+00
100  9.9000000000000E-01  6.0095002952631E-02  1.2637977112231E+00
101  1.0000000000000E+00  3.1228918172852E-02  1.2834186672647E+00
102  1.0100000000000E+00  2.8494108501425E-03  1.3025615830245E+00
103  1.0200000000000E+00 -2.5017424590381E-02  1.3211576526543E+00
104  1.0300000000000E+00 -5.2343789282857E-02  1.3391280382092E+00
105  1.0400000000000E+00 -7.9100019287098E-02  1.3563838757083E+00
106  1.0500000000000E+00 -1.0525445940119E-01  1.3728264342239E+00
107  1.0600000000000E+00 -1.3077337557663E-01  1.3883474374027E+00
108  1.0700000000000E+00 -1.5562090993374E-01  1.4028295557044E+00
109  1.0800000000000E+00 -1.7975908216781E-01  1.4161470763585E+00
110  1.0900000000000E+00 -2.0314784087413E-01  1.4281667565691E+00
111  1.1000000000000E+00 -2.2574516800055E-01  1.4387488638291E+00
112  1.1100000000000E+00 -2.4750723925085E-01  1.4477484053264E+00
113  1.1200000000000E+00 -2.6838864280689E-01  1.4550165463138E+00
114  1.1300000000000E+00 -2.8834265820408E-01  1.4604022149592E+00
115  1.1400000000000E+00 -3.0732159657543E-01  1.4637538885625E+00
116  1.1500000000000E+00 -3.2527720276592E-01  1.4649215531075E+00
117  1.1600000000000E+00 -3.4216111900141E-01  1.4637588248771E+00
118  1.1700000000000E+00 -3.5792540886441E-01  1.4601252192681E+00
119  1.1800000000000E+00 -3.7252313927303E-01  1.4538885479814E+00
120  1.1900000000000E+00 -3.8590901696214E-01  1.4449274213732E+00
121  1.2000000000000E+00 -3.9804007462647E-01  1.4331338279385E+00
122  1.2100000000000E+00 -4.0887640036885E-01  1.4184157575587E+00
123  1.2200000000000E+00 -4.1838190241869E-01  1.4006998293260E+00
124  1.2300000000000E+00 -4.2652509919861E-01  1.3799338783159E+00
125  1.2400000000000E+00 -4.3327992272736E-01  1.3560894486464E+00
126  1.2500000000000E+00 -4.3862652103809E-01  1.3291641324809E+00
127  1.2600000000000E+00 -4.4255204271890E-01  1.2991836861704E+00
128  1.2700000000000E+00 -4.4505138386954E-01  1.2662038455731E+00
129  1.2800000000000E+00 -4.4612787466680E-01  1.2303117525719E+00
130  1.2900000000000E+00 -4.4579387932041E-01  1.1916268938897E+00
131  1.3000000000000E+00 -4.4407127948685E-01  1.1503014414878E+00
132  1.3100000000000E+00 -4.4099180715278E-01  1.1065198710100E+00
133  1.3200000000000E+00 -4.3659718856482E-01  1.0604977207986E+00
134  1.3300000000000E+00 -4.3093905598193E-01  1.0124793389878E+00
135  1.3400000000000E+00 -4.2407857883341E-01  9.6273445000430E-01
136  1.3500000000000E+00 -4.1608576020443E-01  9.1155335423951E-01
137  1.3600000000000E+00 -4.0703833849887E-01  8.5924055586950E-01
138  1.3700000000000E+00 -3.9702022754642E-01  8.0610659349831E-01
139  1.3800000000000E+00 -3.8611942138730E-01  7.5245782664922E-01
140  1.3900000000000E+00 -3.7442528189970E-01  6.9858390537906E-01
141  1.4000000000000E+00 -3.6202512722811E-01  6.4474266801311E-01
142  1.4100000000000E+00 -3.4899996617038E-01  5.9114183738127E-01
143  1.4200000000000E+00 -3.3542123676889E-01  5.3792766409728E-01
144  1.4300000000000E+00 -3.2135630255106E-01  4.8522016404305E-01
145  1.4400000000000E+00 -3.0687364988608E-01  4.3314319889254E-01
146  1.4500000000000E+00 -2.9204271018234E-01  3.8182429573041E-01
147  1.4600000000000E+00 -2.7693356367067E-01  3.3139387599273E-01
148  1.4700000000000E+00 -2.6161659357615E-01  2.8198424037999E-01
149  1.4800000000000E+00 -2.4616212666455E-01  2.3372850955715E-01
150  1.4900000000000E+00 -2.3064006425667E-01  1.8675953478506E-01
151  1.5000000000000E+00 -2.1511950590041E-01  1.4120878302985E-01
152  1.5100000000000E+00 -1.9966836955710E-01  9.7205209427084E-02
153  1.5200000000000E+00 -1.8435301046452E-01  5.4874121833175E-02
154  1.5300000000000E+00 -1.6923784364970E-01  1.4336055379766E-02
155  1.5400000000000E+00 -1.5438497258126E-01 -2.4294336814991E-02
156  1.5500000000000E+00 -1.3985382755098E-01 -6.0909365418722E-02
157  1.5600000000000E+00 -1.2570081754004E-01 -9.5409346925530E-02
158  1.5700000000000E+00 -1.1197899868375E-01 -1.2770359664617E-01
159  1.5800000000000E+00 -9.8737762682212E-02 -1.5771136205463E-01
160  1.5900000000000E+00 -8.6022548246903E-02 -1.8536268687147E-01
161  1.6000000000000E+00 -7.3874578518784E-02 -2.1059919670634E-01
162  1.6100000000000E+00 -6.2330627209093E-02 -2.3337479762851E-01
163  1.6200000000000E+00 -5.1422815941861E-02 -2.5365627992266E-01
164  1.6300000000000E+00 -4.1178445044906E-02 -2.7142381997050E-01
165  1.6400000000000E+00 -3.1619859741336E-02 -2.8667137412434E-01
166  1.6500000000000E+00 -2.2764353380651E-02 -2.9940695941588E-01
167  1.6600000000000E+00 -1.4624109026210E-02 -3.0965281693798E-01
168  1.6700000000000E+00 -7.2061803683965E-03 -3.1744545482238E-01
169  1.6800000000000E+00 -5.1251258982899E-04 -3.2283556878916E-01
170  1.6900000000000E+00  5.4599965793830E-03 -3.2588783947452E-01
171  1.7000000000000E+00  1.0719395729508E-02 -3.2668060681613E-01
172  1.7100000000000E+00  1.5278539048524E-02 -3.2530542293768E-01
173  1.7200000000000E+00  1.9154906885295E-02 -3.2186648620418E-01
174  1.7300000000000E+00  2.2370388820480E-02 -3.1647996017693E-01
175  1.7400000000000E+00  2.4951030838491E-02 -3.0927318236427E-01
176  1.7500000000000E+00  2.6926748468023E-02 -3.0038376847018E-01
177  1.7600000000000E+00  2.8331008507085E-02 -2.8995862046344E-01
178  1.7700000000000E+00  2.9200480920368E-02 -2.7815284266053E-01
179  1.7800000000000E+00  2.9574664957244E-02 -2.6512857918404E-01
180  1.7900000000000E+00  2.9495493049586E-02 -2.5105378411941E-01
181  1.8000000000000E+00  2.9006912344130E-02 -2.3610092142282E-01
182  1.8100000000000E+00  2.8154452594291E-02 -2.2044562526045E-01
183  1.8200000000000E+00  2.6984780142075E-02 -2.0426531711137E-01
184  1.8300000000000E+00  2.5545243638036E-02 -1.8773779838634E-01
185  1.8400000000000E+00  2.3883415015255E-02 -1.7103982913989E-01
186  1.8500000000000E+00  2.2046629821518E-02 -1.5434570564373E-01
187  1.8600000000000E+00  2.0081530951276E-02 -1.3782584933870E-01
188  1.8700000000000E+00  1.8033621372259E-02 -1.2164542409184E-01
189  1.8800000000000E+00  1.5946814696287E-02 -1.0596295158584E-01
190  1.8900000000000E+00  1.3863048490194E-02 -9.0929106900005E-02
191  1.9000000000000E+00  1.1821837999720E-02 -7.6685360902321E-02
192  1.9100000000000E+00  9.8592199757040E-03 -6.3360885750443E-02
193  1.9200000000000E+00  8.0069809392603E-03 -5.1070222868450E-02
194  1.9300000000000E+00  6.2959896182811E-03 -3.9922641739872E-02
195  1.9400000000000E+00  4.7535446214509E-03 -3.0014691685501E-02
196  1.9500000000000E+00  3.4027089321569E-03 -2.1428259685561E-02
197  1.9600000000000E+00  2.2621928696411E-03 -1.4230168580212E-02
198  1.9700000000000E+00  1.3463344101098E-03 -8.4726843708011E-03
199  1.9800000000000E+00  6.6406343554018E-04 -4.1872976225257E-03
200  1.9900000000000E+00  2.1951729691354E-04 -1.3890206625998E-03
201  2.0000000000000E+00  2.3909364317574E-05 -1.5212153883556E-04
202  2.0100000000000E+00 -7.4962726314606E-06  4.7780706306639E-05
203  2.0200000000000E+00  2.3684577115022E-06 -1.5046344998660E-05
204  2.03 -0.  0.
205  2.04 -0.  0.
206  2.05 -0. -0.
207  2.06  0.  0.
208  2.07  0.  0.
209  2.08  0.  0.
210  2.09  0.  0.
211  2.10  0.  0.
212  2.11  0.  0.
213  2.12  0.  0.
214  2.13  0.  0.
215  2.14  0.  0.
216  2.15  0.  0.
217  2.16  0.  0.
218  2.17  0.  0.
219  2.18  0.  0.
220  2.19  0.  0.
221  2.20  0.  0.
222  2.21  0.  0.
223  2.22  0.  0.
224  2.23  0.  0.
225  2.24  0.  0.
226  2.25  0.  0.
227  2.26  0.  0.
228  2.27  0.  0.
229  2.28  0.  0.
230  2.29  0.  0.
231  2.30  0.  0.
232  2.31  0.  0.
233  2.32  0.  0.
234  2.33  0.  0.
235  2.34  0.  0.
236  2.35  0.  0.
237  2.36  0.  0.
238  2.37  0.  0.
239  2.38  0.  0.
240  2.39  0.  0.
241  2.40  0.  0.
242  2.41  0.  0.
243  2.42  0.  0.
244  2.43  0.  0.
245  2.44  0.  0.
246  2.45  0.  0.
247  2.46  0.  0.
248  2.47  0.  0.
249  2.48  0.  0.
250  2.49  0.  0.
251  2.50  0.  0.
252  2.51  0.  0.
253  2.52  0.  0.
254  2.53  0.  0.
255  2.54  0.  0.
256  2.55  0.  0.
257  2.56  0.  0.
258  2.57  0.  0.
259  2.58  0.  0.
260  2.59  0.  0.
261  2.60  0.  0.
262  2.61  0.  0.
263  2.62  0.  0.
264  2.63  0.  0.
265  2.64  0.  0.
266  2.65  0.  0.
267  2.66  0.  0.
268  2.67  0.  0.
269  2.68  0.  0.
270  2.69  0.  0.
271  2.70  0.  0.
272  2.71  0.  0.
273  2.72  0.  0.
274  2.73  0.  0.
275  2.74  0.  0.
276  2.75  0.  0.
277  2.76  0.  0.
278  2.77  0.  0.
279  2.78  0.  0.
280  2.79  0.  0.
281  2.80  0.  0.
282  2.81  0.  0.
283  2.82  0.  0.
284  2.83  0.  0.
285  2.84  0.  0.
286  2.85  0.  0.
287  2.86  0.  0.
288  2.87  0.  0.
289  2.88  0.  0.
290  2.89  0.  0.
291  2.90  0.  0.
292  2.91  0.  0.
293  2.92  0.  0.
294  2.93  0.  0.
295  2.94  0.  0.
296  2.95  0.  0.
297  2.96  0.  0.
298  2.97  0.  0.
299  2.98  0.  0.
300  2.99  0.  0.
301  3.00  0.  0.
302  3.01  0.  0.
303  3.02  0.  0.
304  3.03  0.  0.
305  3.04  0.  0.
306  3.05  0.  0.
307  3.06  0.  0.
308  3.07  0.  0.
309  3.08  0.  0.
310  3.09  0.  0.
311  3.10  0.  0.
312  3.11  0.  0.
313  3.12  0.  0.
314  3.13  0.  0.
315  3.14  0.  0.
316  3.15  0.  0.
317  3.16  0.  0.
318  3.17  0.  0.
319  3.18  0.  0.
320  3.19  0.  0.
321  3.20  0.  0.
322  3.21  0.  0.
323  3.22  0.  0.
324  3.23  0.  0.
325  3.24  0.  0.
326  3.25  0.  0.
327  3.26  0.  0.
328  3.27  0.  0.
329  3.28  0.  0.
330  3.29  0.  0.
331  3.30  0.  0.
332  3.31  0.  0.
333  3.32  0.  0.
334  3.33  0.  0.
335  3.34  0.  0.
336  3.35  0.  0.
337  3.36  0.  0.
338  3.37  0.  0.
339  3.38  0.  0.
340  3.39  0.  0.
341  3.40  0.  0.
342  3.41  0.  0.
343  3.42  0.  0.
344  3.43  0.  0.
345  3.44  0.  0.
346  3.45  0.  0.
347  3.46  0.  0.
348  3.47  0.  0.
349  3.48  0.  0.
350  3.49  0.  0.
351  3.50  0.  0.
352  3.51  0.  0.
353  3.52  0.  0.
354  3.53  0.  0.
355  3.54  0.  0.
356  3.55  0.  0.
357  3.56  0.  0.
358  3.57  0.  0.
359  3.58  0.  0.
360  3.59  0.  0.
361  3.60  0.  0.
362  3.61  0.  0.
363  3.62  0.  0.
364  3.63  0.  0.
365  3.64  0.  0.
366  3.65  0.  0.
367  3.66  0.  0.
368  3.67  0.  0.
369  3.68  0.  0.
370  3.69  0.  0.
371  3.70  0.  0.
372  3.71  0.  0.
373  3.72  0.  0.
374  3.73  0.  0.
375  3.74  0.  0.
376  3.75  0.  0.
377  3.76  0.  0.
378  3.77  0.  0.
379  3.78  0.  0.
380  3.79  0.  0.
381  3.80  0.  0.
382  3.81  0.  0.
383  3.82  0.  0.
384  3.83  0.  0.
385  3.84  0.  0.
386  3.85  0.  0.
387  3.86  0.  0.
388  3.87  0.  0.
389  3.88  0.  0.
390  3.89  0.  0.
391  3.90  0.  0.
392  3.91  0.  0.
393  3.92  0.  0.
394  3.93  0.  0.
395  3.94  0.  0.
396  3.95  0.  0.
397  3.96  0.  0.
398  3.97  0.  0.
399  3.98  0.  0.
400  3.99  0.  0.
401  4.00  0.  0.
402  4.01  0.  0.
403  4.02  0.  0.
404  4.03  0.  0.
405  4.04  0.  0.
406  4.05  0.  0.
407  4.06  0.  0.
408  4.07  0.  0.
409  4.08  0.  0.
410  4.09  0.  0.
411  4.10  0.  0.
412  4.11  0.  0.
413  4.12  0.  0.
414  4.13  0.  0.
415  4.14  0.  0.
416  4.15  0.  0.
417  4.16  0.  0.
418  4.17  0.  0.
419  4.18  0.  0.
420  4.19  0.  0.
421  4.20  0.  0.
422  4.21  0.  0.
423  4.22  0.  0.
424  4.23  0.  0.
425  4.24  0.  0.
426  4.25  0.  0.
427  4.26  0.  0.
428  4.27  0.  0.
429  4.28  0.  0.
430  4.29  0.  0.
431  4.30  0.  0.
432  4.31  0.  0.
433  4.32  0.  0.
434  4.33  0.  0.
435  4.34  0.  0.
436  4.35  0.  0.
437  4.36  0.  0.
438  4.37  0.  0.
439  4.38  0.  0.
440  4.39  0.  0.
441  4.40  0.  0.
442  4.41  0.  0.
443  4.42  0.  0.
444  4.43  0.  0.
445  4.44  0.  0.
446  4.45  0.  0.
447  4.46  0.  0.
448  4.47  0.  0.
449  4.48  0.  0.
450  4.49  0.  0.
451  4.50  0.  0.
452  4.51  0.  0.
453  4.52  0.  0.
454  4.53  0.  0.
455  4.54  0.  0.
456  4.55  0.  0.
457  4.56  0.  0.
458  4.57  0.  0.
459  4.58  0.  0.
460  4.59  0.  0.
461  4.60  0.  0.
462  4.61  0.  0.
463  4.62  0.  0.
464  4.63  0.  0.
465  4.64  0.  0.
466  4.65  0.  0.
467  4.66  0.  0.
468  4.67  0.  0.
469  4.68  0.  0.
470  4.69  0.  0.
471  4.70  0.  0.
472  4.71  0.  0.
473  4.72  0.  0.
474  4.73  0.  0.
475  4.74  0.  0.
476  4.75  0.  0.
477  4.76  0.  0.
478  4.77  0.  0.
479  4.78  0.  0.
480  4.79  0.  0.
481  4.80  0.  0.
482  4.81  0.  0.
483  4.82  0.  0.
484  4.83  0.  0.
485  4.84  0.  0.
486  4.85  0.  0.
487  4.86  0.  0.
488  4.87  0.  0.
489  4.88  0.  0.
490  4.89  0.  0.
491  4.90  0.  0.
492  4.91  0.  0.
493  4.92  0.  0.
494  4.93  0.  0.
495  4.94  0.  0.
496  4.95  0.  0.
497  4.96  0.  0.
498  4.97  0.  0.
499  4.98  0.  0.
500  4.99  0.  0.
501  5.00  0.  0.
502  5.01  0.  0.
503  5.02  0.  0.
504  5.03  0.  0.
505  5.04  0.  0.
506  5.05  0.  0.
507  5.06  0.  0.
508  5.07  0.  0.
509  5.08  0.  0.
510  5.09  0.  0.
511  5.10  0.  0.
512  5.11  0.  0.
513  5.12  0.  0.
514  5.13  0.  0.
515  5.14  0.  0.
516  5.15  0.  0.
517  5.16  0.  0.
518  5.17  0.  0.
519  5.18  0.  0.
520  5.19  0.  0.
521  5.20  0.  0.
522  5.21  0.  0.
523  5.22  0.  0.
524  5.23  0.  0.
525  5.24  0.  0.
526  5.25  0.  0.
527  5.26  0.  0.
528  5.27  0.  0.
529  5.28  0.  0.
530  5.29  0.  0.
531  5.30  0.  0.
532  5.31  0.  0.
533  5.32  0.  0.
534  5.33  0.  0.
535  5.34  0.  0.
536  5.35  0.  0.
537  5.36  0.  0.
538  5.37  0.  0.
539  5.38  0.  0.
540  5.39  0.  0.
541  5.40  0.  0.
542  5.41  0.  0.
543  5.42  0.  0.
544  5.43  0.  0.
545  5.44  0.  0.
546  5.45  0.  0.
547  5.46  0.  0.
548  5.47  0.  0.
549  5.48  0.  0.
550  5.49  0.  0.
551  5.50  0.  0.
552  5.51  0.  0.
553  5.52  0.  0.
554  5.53  0.  0.
555  5.54  0.  0.
556  5.55  0.  0.
557  5.56  0.  0.
558  5.57  0.  0.
559  5.58  0.  0.
560  5.59  0.  0.
561  5.60  0.  0.
562  5.61  0.  0.
563  5.62  0.  0.
564  5.63  0.  0.
565  5.64  0.  0.
566  5.65  0.  0.
567  5.66  0.  0.
568  5.67  0.  0.
569  5.68  0.  0.
570  5.69  0.  0.
571  5.70  0.  0.
572  5.71  0.  0.
573  5.72  0.  0.
574  5.73  0.  0.
575  5.74  0.  0.
576  5.75  0.  0.
577  5.76  0.  0.
578  5.77  0.  0.
579  5.78  0.  0.
580  5.79  0.  0.
581  5.80  0.  0.
582  5.81  0.  0.
583  5.82  0.  0.
584  5.83  0.  0.
585  5.84  0.  0.
586  5.85  0.  0.
587  5.86  0.  0.
588  5.87  0.  0.
589  5.88  0.  0.
590  5.89  0.  0.
591  5.90  0.  0.
592  5.91  0.  0.
593  5.92  0.  0.
594  5.93  0.  0.
595  5.94  0.  0.
596  5.95  0.  0.
597  5.96  0.  0.
598  5.97  0.  0.
599  5.98  0.  0.
600  5.99  0.  0.
1                         6.1755257126539E+00  5.2751709671252E-01
1  0.0000000000000E+00 -1.8153881176097E-11 -1.2998610937620E-09
2  1.0000000000000E-02  1.2450652101019E-03 -9.3640290106269E-04
3  2.0000000000000E-02  4.9759388225174E-03 -3.7361672553362E-03
4  3.0000000000000E-02  1.1179669772228E-02 -8.3710485816486E-03
5  4.0000000000000E-02  1.9834722948248E-02 -1.4794267329517E-02
6  5.0000000000000E-02  3.0911054309139E-02 -2.2940948534141E-02
7  6.0000000000000E-02  4.4370216271674E-02 -3.2728732881366E-02
8  7.0000000000000E-02  6.0165493571808E-02 -4.4058554713026E-02
9  8.0000000000000E-02  7.8242069815311E-02 -5.6815581203279E-02
10  9.0000000000000E-02  9.8537224926122E-02 -7.0870305623763E-02
11  1.0000000000000E-01  1.2098056365915E-01 -8.6079786290026E-02
12  1.1000000000000E-01  1.4549427526759E-01 -1.0228902144824E-01
13  1.2000000000000E-01  1.7199342430018E-01 -1.1933244902465E-01
14  1.3000000000000E-01  2.0038627235001E-01 -1.3703555882973E-01
15  1.4000000000000E-01  2.3057463038352E-01 -1.5521660349578E-01
16  1.5000000000000E-01  2.6245424104714E-01 -1.7368839314470E-01
17  1.6000000000000E-01  2.9591519008235E-01 -1.9226015754919E-01
18  1.7000000000000E-01  3.3084234568103E-01 -2.1073945838352E-01
19  1.8000000000000E-01  3.6711582428757E-01 -2.2893413308277E-01
20  1.9000000000000E-01  4.0461148100671E-01 -2.4665425086240E-01
21  2.0000000000000E-01  4.4320142241529E-01 -2.6371406062002E-01
22  2.1000000000000E-01  4.8275453920833E-01 -2.7993390977206E-01
23  2.2000000000000E-01  5.2313705574409E-01 -2.9514211259519E-01
24  2.3000000000000E-01  5.6421309319824E-01 -3.0917674637105E-01
25  2.4000000000000E-01  6.0584524270267E-01 -3.2188735359670E-01
26  2.5000000000000E-01  6.4789514453936E-01 -3.3313652874372E-01
27  2.6000000000000E-01  6.9022406919351E-01 -3.4280136854606E-01
28  2.7000000000000E-01  7.3269349585115E-01 -3.5077476558591E-01
29  2.8000000000000E-01  7.7516568376319E-01 -3.5696652604111E-01
30  2.9000000000000E-01  8.1750423179781E-01 -3.6130429386315E-01
31  3.0000000000000E-01  8.5957462147239E-01 -3.6373426537634E-01
32  3.1000000000000E-01  9.0124473879985E-01 -3.6422168032079E-01
33  3.2000000000000E-01  9.4238537040705E-01 -3.6275107769771E-01
34  3.3000000000000E-01  9.8287066958536E-01 -3.5932630739834E-01
35  3.4000000000000E-01  1.0225785882182E+00 -3.5397029148752E-01
36  3.5000000000000E-01  1.0613912708945E+00 -3.4672453214039E-01
37  3.6000000000000E-01  1.0991954079593E+00 -3.3764836656266E-01
38  3.7000000000000E-01  1.1358825447657E+00 -3.2681797272035E-01
39  3.8000000000000E-01  1.1713493449758E+00 -3.1432513331938E-01
40  3.9000000000000E-01  1.2054978063937E+00 -3.0027576915606E-01
41  4.0000000000000E-01  1.2382354285023E+00 -2.8478825665264E-01
42  4.1000000000000E-01  1.2694753316011E+00 -2.6799154803819E-01
43  4.2000000000000E-01  1.2991363281887E+00 -2.5002311617201E-01
44  4.3000000000000E-01  1.3271429479961E+00 -2.3102674937179E-01
45  4.4000000000000E-01  1.3534254188331E+00 -2.1115022473783E-01
46  4.5000000000000E-01  1.3779196061497E+00 -1.9054289129386E-01
47  4.6000000000000E-01  1.4005669149209E+00 -1.6935319673367E-01
48  4.7000000000000E-01  1.4213141581222E+00 -1.4772619361211E-01
49  4.8000000000000E-01  1.4401133966550E+00 -1.2580106239448E-01
50  4.9000000000000E-01  1.4569217561047E+00 -1.0370868983297E-01
51  5.0000000000000E-01  1.4717012261376E+00 -8.1569341628799E-02
52  5.1000000000000E-01  1.4844184486722E+00 -5.9490468232031E-02
53  5.2000000000000E-01  1.4950445011734E+00 -3.7564681902738E-02
54  5.3000000000000E-01  1.5035546815140E+00 -1.5867941790324E-02
55  5.4000000000000E-01  1.5099283008135E+00  5.5420182192337E-03
56  5.5000000000000E-01  1.5141484905028E+00  2.6626986781735E-02
57  5.6000000000000E-01  1.5162020295706E+00  4.7369268651804E-02
58  5.7000000000000E-01  1.5160791975180E+00  6.7772349519104E-02
59  5.8000000000000E-01  1.5137736580014E+00  8.7861211517051E-02
60  5.9000000000000E-01  1.5092823774679E+00  1.0768228368357E-01
61  6.0000000000000E-01  1.5026055823065E+00  1.2730301696898E-01
62  6.1000000000000E-01  1.4937467571566E+00  1.4681107905747E-01
63  6.2000000000000E-01  1.4827126860473E+00  1.6631317021234E-01
64  6.3000000000000E-01  1.4695135370075E+00  1.8593346748098E-01
65  6.4000000000000E-01  1.4541629896990E+00  2.0581171080463E-01
66  6.5000000000000E-01  1.4366784045125E+00  2.2610095076833E-01
67  6.6000000000000E-01  1.4170810304408E+00  2.4696498379125E-01
68  6.7000000000000E-01  1.3953962479337E+00  2.6857550638894E-01
69  6.8000000000000E-01  1.3716538418668E+00  2.9110902562942E-01
70  6.9000000000000E-01  1.3458882987435E+00  3.1474356794896E-01
71  7.0000000000000E-01  1.3181391213178E+00  3.3965523299058E-01
72  7.1000000000000E-01  1.2884511529981E+00  3.6601464298281E-01
73  7.2000000000000E-01  1.2568749036940E+00  3.9398334130430E-01
74  7.3000000000000E-01  1.2234668682037E+00  4.2371019620271E-01
75  7.4000000000000E-01  1.1882898278445E+00  4.5532786709373E-01
76  7.5000000000000E-01  1.1514131258027E+00  4.8894939140425E-01
77  7.6000000000000E-01  1.1129129066361E+00  5.2466494951088E-01
78  7.7000000000000E-01  1.0728723105135E+00  5.6253886394027E-01
79  7.8000000000000E-01  1.0313816131231E+00  6.0260688664051E-01
80  7.9000000000000E-01  9.8853830271965E-01  6.4487382481886E-01
81  8.0000000000000E-01  9.4444708651831E-01  6.8931155160353E-01
82  8.1000000000000E-01  8.9921981955603E-01  7.3585744268001E-01
83  8.2000000000000E-01  8.5297535023433E-01  7.8441327414145E-01
84  8.3000000000000E-01  8.0583927800172E-01  8.3484461016786E-01
85  8.4000000000000E-01  7.5794362001772E-01  8.8698070190778E-01
86  8.5000000000000E-01  7.0942638513825E-01  9.4061491119703E-01
87  8.6000000000000E-01  6.6043105514806E-01  9.9550566463972E-01
88  8.7000000000000E-01  6.1110597481239E-01  1.0513779352309E+00
89  8.8000000000000E-01  5.6160365399506E-01  1.1079252402725E+00
90  8.9000000000000E-01  5.1207998676312E-01  1.1648121359648E+00
91  9.0000000000000E-01  4.6269339403425E-01  1.2216771809067E+00
92  9.1000000000000E-01  4.1360389788865E-01  1.2781363329608E+00
93  9.2000000000000E-01  3.6497213713034E-01  1.3337867366795E+00
94  9.3000000000000E-01  3.1695833500831E-01  1.3882108518943E+00
95  9.4000000000000E-01  2.6972123116786E-01  1.4409808682779E+00
96  9.5000000000000E-01  2.2341699086578E-01  1.4916633458085E+00
97  9.6000000000000E-01  1.7819810522576E-01  1.5398240172223E+00
98  9.7000000000000E-01  1.3421229681009E-01  1.5850326858065E+00
99  9.8000000000000E-01  9.1601445021891E-02  1.6268681503375E+00
100  9.9000000000000E-01  5.0500545817244E-02  1.6649230886624E+00
101  1.0000000000000E+00  1.1036719889188E-02  1.6988088323595E+00
102  1.0100000000000E+00 -2.6671717116110E-02  1.7281599671237E+00
103  1.0200000000000E+00 -6.2516109672813E-02  1.7526386969478E+00
104  1.0300000000000E+00 -9.6398231213989E-02  1.7719389147821E+00
105  1.0400000000000E+00 -1.2823095662177E-01  1.7857899280640E+00
106  1.0500000000000E+00 -1.5793882989851E-01  1.7939597942009E+00
107  1.0600000000000E+00 -1.8545852040078E-01  1.7962582286573E+00
108  1.0700000000000E+00 -2.1073916304409E-01  1.7925390565644E+00
109  1.0800000000000E+00 -2.3374258004330E-01  1.7827021875586E+00
110  1.0900000000000E+00 -2.5444338401002E-01  1.7666951027058E+00
111  1.1000000000000E+00 -2.7282896451672E-01  1.7445138515935E+00
112  1.1100000000000E+00 -2.8889936252579E-01  1.7162035668231E+00
113  1.1200000000000E+00 -3.0266703929614E-01  1.6818585118944E+00
114  1.1300000000000E+00 -3.1415654847311E-01  1.6416216866307E+00
115  1.1400000000000E+00 -3.2340412197147E-01  1.5956840215622E+00
116  1.1500000000000E+00 -3.3045718191453E-01  1.5442831988024E+00
117  1.1600000000000E+00 -3.3537379223058E-01  1.4877021416409E+00
118  1.1700000000000E+00 -3.3822206446529E-01  1.4262672180677E+00
119  1.1800000000000E+00 -3.3907953288025E-01  1.3603462044654E+00
120  1.1900000000000E+00 -3.3803251390819E-01  1.2903460544746E+00
121  1.2000000000000E+00 -3.3517546446581E-01  1.2167105143394E+00
122  1.2100000000000E+00 -3.3061035240980E-01  1.1399176195214E+00
123  1.2200000000000E+00 -3.2444605052452E-01  1.0604770979363E+00
124  1.2300000000000E+00 -3.1679776276184E-01  9.7892769240501E-01
125  1.2400000000000E+00 -3.0778648797821E-01  8.9583439870511E-01
126  1.2500000000000E+00 -2.9753852209012E-01  8.1178559579158E-01
127  1.2600000000000E+00 -2.8618499428641E-01  7.2739002085167E-01
128  1.2700000000000E+00 -2.7386142672560E-01  6.4327351403873E-01
129  1.2800000000000E+00 -2.6070729990594E-01  5.6007542554550E-01
130  1.2900000000000E+00 -2.4686559756299E-01  4.7844454088221E-01
131  1.3000000000000E+00 -2.3248229554729E-01  3.9903433892863E-01
132  1.3100000000000E+00 -2.1770574857489E-01  3.2249735116261E-01
133  1.3200000000000E+00 -2.0268591693714E-01  2.4947833905500E-01
134  1.3300000000000E+00 -1.8757336224991E-01  1.8060595017905E-01