Yb    ONCVPSP-4.0.1  r_core=   2.00372   1.60588   1.91009   1.30252
70.0000     24.0000      241015    zatom,zion,pspd
8      11   3     4   600     0    pspcod,pspxc,lmax,lloc,mmax,r2well
5.99000000  4.00000000  0.00000000    rchrg fchrg qchrg
3     2     2     2     0    nproj
1     1           extension_switch
0                         1.2119150825014E+01  3.2179022376723E+00  6.3806178528775E-01
1  0.0000000000000E+00 -9.3269258982787E-10  1.8318499772629E-09 -2.7116442424813E-09
2  1.0000000000000E-02  6.6206068149185E-02 -2.8360795539728E-02  5.1815767448331E-02
3  2.0000000000000E-02  1.3218765438708E-01 -5.6385219069342E-02  1.0312595863340E-01
4  3.0000000000000E-02  1.9772216371877E-01 -8.3740558824018E-02  1.5343061856651E-01
5  4.0000000000000E-02  2.6259075386946E-01 -1.1010138159273E-01  2.0224097146163E-01
6  5.0000000000000E-02  3.2658015910231E-01 -1.3515306762342E-01  2.4908485266605E-01
7  6.0000000000000E-02  3.8948445165393E-01 -1.5859522159391E-01  2.9351195332699E-01
8  7.0000000000000E-02  4.5110672109899E-01 -1.8014492050824E-01  3.3509881858554E-01
9  8.0000000000000E-02  5.1126065288830E-01 -1.9953976121017E-01  3.7345354280085E-01
10  9.0000000000000E-02  5.6977198845162E-01 -2.1654067245848E-01  4.0822010864427E-01
11  1.0000000000000E-01  6.2647985060475E-01 -2.3093445915904E-01  4.3908232082912E-01
12  1.1000000000000E-01  6.8123791953728E-01 -2.4253604936925E-01  4.6576728972001E-01
13  1.2000000000000E-01  7.3391544636359E-01 -2.5119041804694E-01  4.8804842504473E-01
14  1.3000000000000E-01  7.8439809307902E-01 -2.5677416517508E-01  5.0574790536379E-01
15  1.4000000000000E-01  8.3258858975421E-01 -2.5919672981397E-01  5.1873859477855E-01
16  1.5000000000000E-01  8.7840720190157E-01 -2.5840122577376E-01  5.2694538451843E-01
17  1.6000000000000E-01  9.2179200313629E-01 -2.5436488891535E-01  5.3034594347411E-01
18  1.7000000000000E-01  9.6269895050504E-01 -2.4709913053257E-01  5.2897086837163E-01
19  1.8000000000000E-01  1.0011017621446E+00 -2.3664919579078E-01  5.2290323103630E-01
20  1.9000000000000E-01  1.0369915992334E+00 -2.2309343075150E-01  5.1227752700837E-01
21  2.0000000000000E-01  1.0703765564869E+00 -2.0654216604349E-01  4.9727803656445E-01
22  2.1000000000000E-01  1.1012809676933E+00 -1.8713622970267E-01  4.7813661590076E-01
23  2.2000000000000E-01  1.1297445349695E+00 -1.6504510603961E-01  4.5512994276627E-01
24  2.3000000000000E-01  1.1558212925078E+00 -1.4046476156312E-01  4.2857624713232E-01
25  2.4000000000000E-01  1.1795784175576E+00 -1.1361516293341E-01  3.9883156346567E-01
26  2.5000000000000E-01  1.2010949032241E+00 -8.4737515600927E-02  3.6628554677898E-01
27  2.6000000000000E-01  1.2204601093405E+00 -5.4091255160221E-02  3.3135689979408E-01
28  2.7000000000000E-01  1.2377722091646E+00 -2.1950826469261E-02  2.9448846320761E-01
29  2.8000000000000E-01  1.2531365509426E+00  1.1397711779279E-02  2.5614202514440E-01
30  2.9000000000000E-01  1.2666639544589E+00  4.5660217133114E-02  2.1679290936644E-01
31  3.0000000000000E-01  1.2784689635387E+00  8.0538086434880E-02  1.7692440463157E-01
32  3.1000000000000E-01  1.2886680760655E+00  1.1573192889705E-01  1.3702209972794E-01
33  3.2000000000000E-01  1.2973779734311E+00  1.5094524543814E-01  9.7568190118666E-02
34  3.3000000000000E-01  1.3047137714204E+00  1.8588807022854E-01  5.9035822789726E-02
35  3.4000000000000E-01  1.3107873143644E+00  2.2028053061380E-01  2.1883545794765E-02
36  3.5000000000000E-01  1.3157055339569E+00  2.5385628232356E-01 -1.3450071884992E-02
37  3.6000000000000E-01  1.3195688934370E+00  2.8636577812219E-01 -4.6551586180064E-02
38  3.7000000000000E-01  1.3224699368867E+00  3.1757932981249E-01 -7.7037527880606E-02
39  3.8000000000000E-01  1.3244919622002E+00  3.4728992574654E-01 -1.0455889823194E-01
40  3.9000000000000E-01  1.3257078348493E+00  3.7531576870244E-01 -1.2880525554806E-01
41  4.0000000000000E-01  1.3261789579211E+00  4.0150250213556E-01 -1.4950834272411E-01
42  4.1000000000000E-01  1.3259544120548E+00  4.2572509636241E-01 -1.6644521065557E-01
43  4.2000000000000E-01  1.3250702768733E+00  4.4788937015615E-01 -1.7944079827555E-01
44  4.3000000000000E-01  1.3235491433147E+00  4.6793312747603E-01 -1.8836993613379E-01
45  4.4000000000000E-01  1.3213998239492E+00  4.8582689357434E-01 -1.9315874709696E-01
46  4.5000000000000E-01  1.3186172659355E+00  5.0157423946948E-01 -1.9378542477493E-01
47  4.6000000000000E-01  1.3151826687688E+00  5.1521168869082E-01 -1.9028037759398E-01
48  4.7000000000000E-01  1.3110638064189E+00  5.2680820522669E-01 -1.8272573395666E-01
49  4.8000000000000E-01  1.3062155508872E+00  5.3646426668996E-01 -1.7125421157250E-01
50  4.9000000000000E-01  1.3005805916648E+00  5.4431053178143E-01 -1.5604736170517E-01
51  5.0000000000000E-01  1.2940903430645E+00  5.5050611613423E-01 -1.3733320669337E-01
52  5.1000000000000E-01  1.2866660289808E+00  5.5523649548305E-01 -1.1538329654496E-01
53  5.2000000000000E-01  1.2782199323175E+00  5.5871105977181E-01 -9.0509217605838E-02
54  5.3000000000000E-01  1.2686567941558E+00  5.6116034622628E-01 -6.3058593166078E-02
55  5.4000000000000E-01  1.2578753457337E+00  5.6283298351874E-01 -3.3410622301682E-02
56  5.5000000000000E-01  1.2457699545123E+00  5.6399238288323E-01 -1.9712091741352E-03
57  5.6000000000000E-01  1.2322323640232E+00  5.6491321535838E-01  3.0832259647504E-02
58  5.7000000000000E-01  1.2171535058630E+00  5.6587771718764E-01  6.4556427597792E-02
59  5.8000000000000E-01  1.2004253611353E+00  5.6717186775624E-01  9.8747704060375E-02
60  5.9000000000000E-01  1.1819428478572E+00  5.6908148626073E-01  1.3294815446800E-01
61  6.0000000000000E-01  1.1616057103544E+00  5.7188829455697E-01  1.6670147282690E-01
62  6.1000000000000E-01  1.1393203864900E+00  5.7586599429758E-01  1.9955896344930E-01
63  6.2000000000000E-01  1.1150018286867E+00  5.8127640654118E-01  2.3108545807711E-01
64  6.3000000000000E-01  1.0885752551391E+00  5.8836572148172E-01  2.6086509488912E-01
65  6.4000000000000E-01  1.0599778083485E+00  5.9736090481542E-01  2.8850688709954E-01
66  6.5000000000000E-01  1.0291600991493E+00  6.0846630554249E-01  3.1365001097440E-01
67  6.6000000000000E-01  9.9608761571735E-01  6.2186050771362E-01  3.3596874608970E-01
68  6.7000000000000E-01  9.6074197864565E-01  6.3769346580031E-01  3.5517700450638E-01
69  6.8000000000000E-01  9.2312202501716E-01  6.5608396003175E-01  3.7103239019206E-01
70  6.9000000000000E-01  8.8324470647492E-01  6.7711740423792E-01  3.8333973543232E-01
71  7.0000000000000E-01  8.4114578856287E-01  7.0084403452156E-01  3.9195406707031E-01
72  7.1000000000000E-01  7.9688034105361E-01  7.2727750249907E-01  3.9678296213485E-01
73  7.2000000000000E-01  7.5052301155730E-01  7.5639389197295E-01  3.9778825965908E-01
74  7.3000000000000E-01  7.0216807739076E-01  7.8813117277477E-01  3.9498710319440E-01
75  7.4000000000000E-01  6.5192927343043E-01  8.2238910023768E-01  3.8845229655604E-01
76  7.5000000000000E-01  5.9993939645041E-01  8.5902956336911E-01  3.7831196363237E-01
77  7.6000000000000E-01  5.4634968920868E-01  8.9787737938964E-01  3.6474851151593E-01
78  7.7000000000000E-01  4.9132901025905E-01  9.3872152694396E-01  3.4799690468227E-01
79  7.8000000000000E-01  4.3506279809144E-01  9.8131680505133E-01  3.2834226633881E-01
80  7.9000000000000E-01  3.7775184070313E-01  1.0253858998169E+00  3.0611683128491E-01
81  8.0000000000000E-01  3.1961086404320E-01  1.0706218361372E+00  2.8169628256545E-01
82  8.1000000000000E-01  2.6086695491861E-01  1.1166907871667E+00  2.5549551176412E-01
83  8.2000000000000E-01  2.0175783587480E-01  1.1632352102270E+00  2.2796384988049E-01
84  8.3000000000000E-01  1.4253001123620E-01  1.2098772741878E+00  1.9957982227128E-01
85  8.4000000000000E-01  8.3436804897322E-02  1.2562225401661E+00  1.7084548705614E-01
86  8.5000000000000E-01  2.4736311566915E-02  1.3018638547323E+00  1.4228042159872E-01
87  8.6000000000000E-01 -3.3310716017974E-02  1.3463854126784E+00  1.1441542614718E-01
88  8.7000000000000E-01 -9.0443020890407E-02  1.3893669448443E+00  8.7786017387296E-02
89  8.8000000000000E-01 -1.4640101345446E-01  1.4303879854932E+00  6.2925787513901E-02
90  8.9000000000000E-01 -2.0092893779702E-01  1.4690321732974E+00  4.0359706431760E-02
91  9.0000000000000E-01 -2.5377701003716E-01  1.5048915401159E+00  2.0597445851898E-02
92  9.1000000000000E-01 -3.0470350674263E-01  1.5375707423995E+00  4.1268043671417E-03
93  9.2000000000000E-01 -3.5347678241480E-01  1.5666911912222E+00 -8.5926879256972E-03
94  9.3000000000000E-01 -3.9987719625647E-01  1.5918950385600E+00 -1.7135907996651E-02
95  9.4000000000000E-01 -4.4369892986462E-01  1.6128489794837E+00 -2.1117946456006E-02
96  9.5000000000000E-01 -4.8475167910012E-01  1.6292478323420E+00 -2.0199509725360E-02
97  9.6000000000000E-01 -5.2286220514204E-01  1.6408178617292E+00 -1.4091848849581E-02
98  9.7000000000000E-01 -5.5787573159714E-01  1.6473198119916E+00 -2.5611500490130E-03
99  9.8000000000000E-01 -5.8965717646758E-01  1.6485516221713E+00  1.4567673275279E-02
100  9.9000000000000E-01 -6.1809220973697E-01  1.6443507965362E+00  3.7407842264025E-02
101  1.0000000000000E+00 -6.4308812928126E-01  1.6345964081552E+00  6.6008277669852E-02
102  1.0100000000000E+00 -6.6457454970320E-01  1.6192107162696E+00  1.0035191192899E-01
103  1.0200000000000E+00 -6.8250390049315E-01  1.5981603814412E+00  1.4035478554682E-01
104  1.0300000000000E+00 -6.9685173160025E-01  1.5714572655782E+00  1.8586595840799E-01
105  1.0400000000000E+00 -7.0761682603073E-01  1.5391588069106E+00  2.3666825955324E-01
106  1.0500000000000E+00 -7.1482112044897E-01  1.5013679627882E+00  2.9247989151903E-01
107  1.0600000000000E+00 -7.1850943593120E-01  1.4582327158034E+00  3.5295689744702E-01
108  1.0700000000000E+00 -7.1874902200322E-01  1.4099451411994E+00  4.1769649076413E-01
109  1.0800000000000E+00 -7.1562891788645E-01  1.3567400358504E+00  4.8624123822022E-01
110  1.0900000000000E+00 -7.0925913549989E-01  1.2988931113545E+00  5.5808407724426E-01
111  1.1000000000000E+00 -6.9976966924087E-01  1.2367187560203E+00  6.3267413783793E-01
112  1.1100000000000E+00 -6.8730933794414E-01  1.1705673728954E+00  7.0942332724017E-01
113  1.1200000000000E+00 -6.7204446474626E-01  1.1008223035823E+00  7.8771362217424E-01
114  1.1300000000000E+00 -6.5415740093928E-01  1.0278963506123E+00  8.6690499823913E-01
115  1.1400000000000E+00 -6.3384490036854E-01  9.5222791478632E-01  9.4634390858410E-01
116  1.1500000000000E+00 -6.1131635162765E-01  8.7427676839545E-01  1.0253722039592E+00
117  1.1600000000000E+00 -5.8679187635097E-01  7.9451949087309E-01  1.1033363630729E+00
118  1.1700000000000E+00 -5.6050030345548E-01  7.1344460053672E-01  1.1795968753370E+00
119  1.1800000000000E+00 -5.3267703139757E-01  6.3154742498402E-01  1.2535375869939E+00
120  1.1900000000000E+00 -5.0356179360132E-01  5.4932476388905E-01  1.3245747854162E+00
121  1.2000000000000E+00 -4.7339634635383E-01  4.6726941171087E-01  1.3921657546993E+00
122  1.2100000000000E+00 -4.4242210397054E-01  3.8586462492478E-01  1.4558164870191E+00
123  1.2200000000000E+00 -4.1087775306341E-01  3.0557863902529E-01  1.5150881786407E+00
124  1.2300000000000E+00 -3.7899688671764E-01  2.2685936570693E-01  1.5696020749515E+00
125  1.2400000000000E+00 -3.4700571054248E-01  1.5012943071975E-01  1.6190421550911E+00
126  1.2500000000000E+00 -3.1512088622949E-01  7.5781748579550E-02  1.6631550625666E+00
127  1.2600000000000E+00 -2.8354759499953E-01  4.1758728261047E-03  1.7017465914651E+00
128  1.2700000000000E+00 -2.5247792331106E-01 -6.4364589940532E-02  1.7346739286410E+00
129  1.2800000000000E+00 -2.2208969712502E-01 -1.2955315591943E-01  1.7618327266903E+00
130  1.2900000000000E+00 -1.9254592056972E-01 -1.9113981228593E-01  1.7831379148676E+00
131  1.3000000000000E+00 -1.6399499031579E-01 -2.4890809601433E-01  1.7984974069380E+00
132  1.3100000000000E+00 -1.3657189974153E-01 -3.0266935704961E-01  1.8077776792974E+00
133  1.3200000000000E+00 -1.1039821721851E-01 -3.5226105128502E-01  1.8108178134646E+00
134  1.3300000000000E+00 -8.5579738363177E-02 -3.9755286991327E-01  1.8074981869586E+00
135  1.3400000000000E+00 -6.2205813755652E-02 -4.3844852819906E-01  1.7977562521803E+00
136  1.3500000000000E+00 -4.0349388700323E-02 -4.7488562097279E-01  1.7815860648907E+00
137  1.3600000000000E+00 -2.0067184959529E-02 -5.0683519228942E-01  1.7590375690030E+00
138  1.3700000000000E+00 -1.4000294228490E-03 -5.3430099586170E-01  1.7302153158929E+00
139  1.3800000000000E+00  1.5626681066050E-02 -5.5731846828057E-01  1.6952766888233E+00
140  1.3900000000000E+00  3.1002388852973E-02 -5.7595343413568E-01  1.6544296550931E+00
141  1.4000000000000E+00  4.4730669952655E-02 -5.9030056497807E-01  1.6079300773380E+00
142  1.4100000000000E+00  5.6828426126933E-02 -6.0048161608206E-01  1.5560786192445E+00
143  1.4200000000000E+00  6.7324987539474E-02 -6.0664346663909E-01  1.4992172844112E+00
144  1.4300000000000E+00  7.6261139506120E-02 -6.0895599037475E-01  1.4377256302285E+00
145  1.4400000000000E+00  8.3688087185164E-02 -6.0760978449329E-01  1.3720167008420E+00
146  1.4500000000000E+00  8.9666372212088E-02 -6.0281378546864E-01  1.3025327252757E+00
147  1.4600000000000E+00  9.4264755261050E-02 -5.9479280045422E-01  1.2297406281971E+00
148  1.4700000000000E+00  9.7559078294081E-02 -5.8378498292044E-01  1.1541274013822E+00
149  1.4800000000000E+00  9.9631119832376E-02 -5.7003928052165E-01  1.0761953836365E+00
150  1.4900000000000E+00  1.0056745638680E-01 -5.5381288335037E-01  9.9645750016276E-01
151  1.5000000000000E+00  1.0045834177835E-01 -5.3536869760004E-01  9.1543250372598E-01
152  1.5100000000000E+00  9.9396615892312E-02 -5.1497287003113E-01  8.3364026520358E-01
153  1.5200000000000E+00  9.7476654048339E-02 -4.9289238860057E-01  7.5159716539690E-01
154  1.5300000000000E+00  9.4793365107106E-02 -4.6939277703337E-01  6.6981161576021E-01
155  1.5400000000000E+00  9.1441247851685E-02 -4.4473590616706E-01  5.8877976007380E-01
156  1.5500000000000E+00  8.7513512290284E-02 -4.1917793785788E-01  5.0898138757622E-01
157  1.5600000000000E+00  8.3101272069440E-02 -3.9296741703643E-01  4.3087609277044E-01
158  1.5700000000000E+00  7.8292812770332E-02 -3.6634352458635E-01  3.5489971157185E-01
159  1.5800000000000E+00  7.3172939686401E-02 -3.3953450145618E-01  2.8146106037304E-01
160  1.5900000000000E+00  6.7822407442521E-02 -3.1275625192081E-01  2.1093900056395E-01
161  1.6000000000000E+00  6.2317432636071E-02 -2.8621113151681E-01  1.4367984722312E-01
162  1.6100000000000E+00  5.6729289563651E-02 -2.6008692287918E-01  7.9995136943713E-02
163  1.6200000000000E+00  5.1123987976565E-02 -2.3455600032171E-01  2.0159765491610E-02
164  1.6300000000000E+00  4.5562030828592E-02 -2.0977468190348E-01 -3.5589497677488E-02
165  1.6400000000000E+00  4.0098249044273E-02 -1.8588276564892E-01 -8.7055114930232E-02
166  1.6500000000000E+00  3.4781709499551E-02 -1.6300324467675E-01 -1.3407950664189E-01
167  1.6600000000000E+00  2.9655691676513E-02 -1.4124219426318E-01 -1.7654540225667E-01
168  1.6700000000000E+00  2.4757727827296E-02 -1.2068882230435E-01 -2.1437582384212E-01
169  1.6800000000000E+00  2.0119700988200E-02 -1.0141567333003E-01 -2.4753371281647E-01
170  1.6900000000000E+00  1.5767994751507E-02 -8.3478974974767E-02 -2.7602121372120E-01
171  1.7000000000000E+00  1.1723688451262E-02 -6.6919114943624E-02 -2.9987863138902E-01
172  1.7100000000000E+00  8.0027912475287E-03 -5.1761235763613E-02 -3.1918308030501E-01
173  1.7200000000000E+00  4.6165084898376E-03 -3.8015933971221E-02 -3.3404684736940E-01
174  1.7300000000000E+00  1.5715339996936E-03 -2.5680050568335E-02 -3.4461548988315E-01
175  1.7400000000000E+00 -1.1296390071764E-03 -1.4737536891729E-02 -3.5106569825353E-01
176  1.7500000000000E+00 -3.4883918244320E-03 -5.1603886597078E-03 -3.5360293366537E-01
177  1.7600000000000E+00 -5.5096489890026E-03  3.0903752476913E-03 -3.5245889125114E-01
178  1.7700000000000E+00 -7.2015454116607E-03  1.0063697863882E-02 -3.4788880537317E-01
179  1.7800000000000E+00 -8.5750924751743E-03  1.5817435041630E-02 -3.4016859942056E-01
180  1.7900000000000E+00 -9.6438565481670E-03  2.0417305578725E-02 -3.2959195939413E-01
181  1.8000000000000E+00 -1.0423646023843E-02  2.3935832985873E-02 -3.1646731427398E-01
182  1.8100000000000E+00 -1.0932214018137E-02  2.6451298253118E-02 -3.0111477221365E-01
183  1.8200000000000E+00 -1.1188978454762E-02  2.8046710533823E-02 -2.8386303349863E-01
184  1.8300000000000E+00 -1.1214761877917E-02  2.8808804603496E-02 -2.6504630736313E-01
185  1.8400000000000E+00 -1.1031552541988E-02  2.8827072477692E-02 -2.4500125765056E-01
186  1.8500000000000E+00 -1.0662287825857E-02  2.8192835748351E-02 -2.2406400161710E-01
187  1.8600000000000E+00 -1.0130660432225E-02  2.6998364105124E-02 -2.0256718469554E-01
188  1.8700000000000E+00 -9.4609320432165E-03  2.5336017913482E-02 -1.8083712263037E-01
189  1.8800000000000E+00 -8.6779042024798E-03  2.3297680522731E-02 -1.5919132824095E-01
190  1.8900000000000E+00 -7.8064463262529E-03  2.0973439212163E-02 -1.3793525886438E-01
191  1.9000000000000E+00 -6.8717926585816E-03  1.8451625209122E-02 -1.1736068658308E-01
192  1.9100000000000E+00 -5.9062629912894E-03  1.5830107671104E-02 -9.7756947671603E-02
193  1.9200000000000E+00 -4.9536278937593E-03  1.3223546336261E-02 -7.9417752571102E-02
194  1.9300000000000E+00 -4.0324427855068E-03  1.0699010836609E-02 -6.2566816271421E-02
195  1.9400000000000E+00 -3.1590923770809E-03  8.3157679428926E-03 -4.7401726849072E-02
196  1.9500000000000E+00 -2.3518394173698E-03  6.1320491454898E-03 -3.4100575838388E-02
197  1.9600000000000E+00 -1.6298651322843E-03  4.2031373536345E-03 -2.2818911234442E-02
198  1.9700000000000E+00 -1.0135516873735E-03  2.5817605683259E-03 -1.3690860473977E-02
199  1.9800000000000E+00 -5.2361054139385E-04  1.3158771745795E-03 -6.8186532028447E-03
200  1.9900000000000E+00 -1.8173621718918E-04  4.5012841762580E-04 -2.2797422811850E-03
201  2.0000000000000E+00 -2.1161001287135E-05  5.1407887274268E-05 -2.5244154001263E-04
202  2.0100000000000E+00  6.5960186273012E-06 -1.6028496289952E-05  7.9124431321996E-05
203  2.0200000000000E+00 -2.0333903964482E-06  4.9798510731414E-06 -2.4829312836800E-05
204  2.03  0. -0.  0.
205  2.04  0. -0.  0.
206  2.05  0. -0.  0.
207  2.06  0.  0.  0.
208  2.07  0.  0.  0.
209  2.08  0.  0.  0.
210  2.09  0.  0.  0.
211  2.10  0.  0.  0.
212  2.11  0.  0.  0.
213  2.12  0.  0.  0.
214  2.13  0.  0.  0.
215  2.14  0.  0.  0.
216  2.15  0.  0.  0.
217  2.16  0.  0.  0.
218  2.17  0.  0.  0.
219  2.18  0.  0.  0.
220  2.19  0.  0.  0.
221  2.20  0.  0.  0.
222  2.21  0.  0.  0.
223  2.22  0.  0.  0.
224  2.23  0.  0.  0.
225  2.24  0.  0.  0.
226  2.25  0.  0.  0.
227  2.26  0.  0.  0.
228  2.27  0.  0.  0.
229  2.28  0.  0.  0.
230  2.29  0.  0.  0.
231  2.30  0.  0.  0.
232  2.31  0.  0.  0.
233  2.32  0.  0.  0.
234  2.33  0.  0.  0.
235  2.34  0.  0.  0.
236  2.35  0.  0.  0.
237  2.36  0.  0.  0.
238  2.37  0.  0.  0.
239  2.38  0.  0.  0.
240  2.39  0.  0.  0.
241  2.40  0.  0.  0.
242  2.41  0.  0.  0.
243  2.42  0.  0.  0.
244  2.43  0.  0.  0.
245  2.44  0.  0.  0.
246  2.45  0.  0.  0.
247  2.46  0.  0.  0.
248  2.47  0.  0.  0.
249  2.48  0.  0.  0.
250  2.49  0.  0.  0.
251  2.50  0.  0.  0.
252  2.51  0.  0.  0.
253  2.52  0.  0.  0.
254  2.53  0.  0.  0.
255  2.54  0.  0.  0.
256  2.55  0.  0.  0.
257  2.56  0.  0.  0.
258  2.57  0.  0.  0.
259  2.58  0.  0.  0.
260  2.59  0.  0.  0.
261  2.60  0.  0.  0.
262  2.61  0.  0.  0.
263  2.62  0.  0.  0.
264  2.63  0.  0.  0.
265  2.64  0.  0.  0.
266  2.65  0.  0.  0.
267  2.66  0.  0.  0.
268  2.67  0.  0.  0.
269  2.68  0.  0.  0.
270  2.69  0.  0.  0.
271  2.70  0.  0.  0.
272  2.71  0.  0.  0.
273  2.72  0.  0.  0.
274  2.73  0.  0.  0.
275  2.74  0.  0.  0.
276  2.75  0.  0.  0.
277  2.76  0.  0.  0.
278  2.77  0.  0.  0.
279  2.78  0.  0.  0.
280  2.79  0.  0.  0.
281  2.80  0.  0.  0.
282  2.81  0.  0.  0.
283  2.82  0.  0.  0.
284  2.83  0.  0.  0.
285  2.84  0.  0.  0.
286  2.85  0.  0.  0.
287  2.86  0.  0.  0.
288  2.87  0.  0.  0.
289  2.88  0.  0.  0.
290  2.89  0.  0.  0.
291  2.90  0.  0.  0.
292  2.91  0.  0.  0.
293  2.92  0.  0.  0.
294  2.93  0.  0.  0.
295  2.94  0.  0.  0.
296  2.95  0.  0.  0.
297  2.96  0.  0.  0.
298  2.97  0.  0.  0.
299  2.98  0.  0.  0.
300  2.99  0.  0.  0.
301  3.00  0.  0.  0.
302  3.01  0.  0.  0.
303  3.02  0.  0.  0.
304  3.03  0.  0.  0.
305  3.04  0.  0.  0.
306  3.05  0.  0.  0.
307  3.06  0.  0.  0.
308  3.07  0.  0.  0.
309  3.08  0.  0.  0.
310  3.09  0.  0.  0.
311  3.10  0.  0.  0.
312  3.11  0.  0.  0.
313  3.12  0.  0.  0.
314  3.13  0.  0.  0.
315  3.14  0.  0.  0.
316  3.15  0.  0.  0.
317  3.16  0.  0.  0.
318  3.17  0.  0.  0.
319  3.18  0.  0.  0.
320  3.19  0.  0.  0.
321  3.20  0.  0.  0.
322  3.21  0.  0.  0.
323  3.22  0.  0.  0.
324  3.23  0.  0.  0.
325  3.24  0.  0.  0.
326  3.25  0.  0.  0.
327  3.26  0.  0.  0.
328  3.27  0.  0.  0.
329  3.28  0.  0.  0.
330  3.29  0.  0.  0.
331  3.30  0.  0.  0.
332  3.31  0.  0.  0.
333  3.32  0.  0.  0.
334  3.33  0.  0.  0.
335  3.34  0.  0.  0.
336  3.35  0.  0.  0.
337  3.36  0.  0.  0.
338  3.37  0.  0.  0.
339  3.38  0.  0.  0.
340  3.39  0.  0.  0.
341  3.40  0.  0.  0.
342  3.41  0.  0.  0.
343  3.42  0.  0.  0.
344  3.43  0.  0.  0.
345  3.44  0.  0.  0.
346  3.45  0.  0.  0.
347  3.46  0.  0.  0.
348  3.47  0.  0.  0.
349  3.48  0.  0.  0.
350  3.49  0.  0.  0.
351  3.50  0.  0.  0.
352  3.51  0.  0.  0.
353  3.52  0.  0.  0.
354  3.53  0.  0.  0.
355  3.54  0.  0.  0.
356  3.55  0.  0.  0.
357  3.56  0.  0.  0.
358  3.57  0.  0.  0.
359  3.58  0.  0.  0.
360  3.59  0.  0.  0.
361  3.60  0.  0.  0.
362  3.61  0.  0.  0.
363  3.62  0.  0.  0.
364  3.63  0.  0.  0.
365  3.64  0.  0.  0.
366  3.65  0.  0.  0.
367  3.66  0.  0.  0.
368  3.67  0.  0.  0.
369  3.68  0.  0.  0.
370  3.69  0.  0.  0.
371  3.70  0.  0.  0.
372  3.71  0.  0.  0.
373  3.72  0.  0.  0.
374  3.73  0.  0.  0.
375  3.74  0.  0.  0.
376  3.75  0.  0.  0.
377  3.76  0.  0.  0.
378  3.77  0.  0.  0.
379  3.78  0.  0.  0.
380  3.79  0.  0.  0.
381  3.80  0.  0.  0.
382  3.81  0.  0.  0.
383  3.82  0.  0.  0.
384  3.83  0.  0.  0.
385  3.84  0.  0.  0.
386  3.85  0.  0.  0.
387  3.86  0.  0.  0.
388  3.87  0.  0.  0.
389  3.88  0.  0.  0.
390  3.89  0.  0.  0.
391  3.90  0.  0.  0.
392  3.91  0.  0.  0.
393  3.92  0.  0.  0.
394  3.93  0.  0.  0.
395  3.94  0.  0.  0.
396  3.95  0.  0.  0.
397  3.96  0.  0.  0.
398  3.97  0.  0.  0.
399  3.98  0.  0.  0.
400  3.99  0.  0.  0.
401  4.00  0.  0.  0.
402  4.01  0.  0.  0.
403  4.02  0.  0.  0.
404  4.03  0.  0.  0.
405  4.04  0.  0.  0.
406  4.05  0.  0.  0.
407  4.06  0.  0.  0.
408  4.07  0.  0.  0.
409  4.08  0.  0.  0.
410  4.09  0.  0.  0.
411  4.10  0.  0.  0.
412  4.11  0.  0.  0.
413  4.12  0.  0.  0.
414  4.13  0.  0.  0.
415  4.14  0.  0.  0.
416  4.15  0.  0.  0.
417  4.16  0.  0.  0.
418  4.17  0.  0.  0.
419  4.18  0.  0.  0.
420  4.19  0.  0.  0.
421  4.20  0.  0.  0.
422  4.21  0.  0.  0.
423  4.22  0.  0.  0.
424  4.23  0.  0.  0.
425  4.24  0.  0.  0.
426  4.25  0.  0.  0.
427  4.26  0.  0.  0.
428  4.27  0.  0.  0.
429  4.28  0.  0.  0.
430  4.29  0.  0.  0.
431  4.30  0.  0.  0.
432  4.31  0.  0.  0.
433  4.32  0.  0.  0.
434  4.33  0.  0.  0.
435  4.34  0.  0.  0.
436  4.35  0.  0.  0.
437  4.36  0.  0.  0.
438  4.37  0.  0.  0.
439  4.38  0.  0.  0.
440  4.39  0.  0.  0.
441  4.40  0.  0.  0.
442  4.41  0.  0.  0.
443  4.42  0.  0.  0.
444  4.43  0.  0.  0.
445  4.44  0.  0.  0.
446  4.45  0.  0.  0.
447  4.46  0.  0.  0.
448  4.47  0.  0.  0.
449  4.48  0.  0.  0.
450  4.49  0.  0.  0.
451  4.50  0.  0.  0.
452  4.51  0.  0.  0.
453  4.52  0.  0.  0.
454  4.53  0.  0.  0.
455  4.54  0.  0.  0.
456  4.55  0.  0.  0.
457  4.56  0.  0.  0.
458  4.57  0.  0.  0.
459  4.58  0.  0.  0.
460  4.59  0.  0.  0.
461  4.60  0.  0.  0.
462  4.61  0.  0.  0.
463  4.62  0.  0.  0.
464  4.63  0.  0.  0.
465  4.64  0.  0.  0.
466  4.65  0.  0.  0.
467  4.66  0.  0.  0.
468  4.67  0.  0.  0.
469  4.68  0.  0.  0.
470  4.69  0.  0.  0.
471  4.70  0.  0.  0.
472  4.71  0.  0.  0.
473  4.72  0.  0.  0.
474  4.73  0.  0.  0.
475  4.74  0.  0.  0.
476  4.75  0.  0.  0.
477  4.76  0.  0.  0.
478  4.77  0.  0.  0.
479  4.78  0.  0.  0.
480  4.79  0.  0.  0.
481  4.80  0.  0.  0.
482  4.81  0.  0.  0.
483  4.82  0.  0.  0.
484  4.83  0.  0.  0.
485  4.84  0.  0.  0.
486  4.85  0.  0.  0.
487  4.86  0.  0.  0.
488  4.87  0.  0.  0.
489  4.88  0.  0.  0.
490  4.89  0.  0.  0.
491  4.90  0.  0.  0.
492  4.91  0.  0.  0.
493  4.92  0.  0.  0.
494  4.93  0.  0.  0.
495  4.94  0.  0.  0.
496  4.95  0.  0.  0.
497  4.96  0.  0.  0.
498  4.97  0.  0.  0.
499  4.98  0.  0.  0.
500  4.99  0.  0.  0.
501  5.00  0.  0.  0.
502  5.01  0.  0.  0.
503  5.02  0.  0.  0.
504  5.03  0.  0.  0.
505  5.04  0.  0.  0.
506  5.05  0.  0.  0.
507  5.06  0.  0.  0.
508  5.07  0.  0.  0.
509  5.08  0.  0.  0.
510  5.09  0.  0.  0.
511  5.10  0.  0.  0.
512  5.11  0.  0.  0.
513  5.12  0.  0.  0.
514  5.13  0.  0.  0.
515  5.14  0.  0.  0.
516  5.15  0.  0.  0.
517  5.16  0.  0.  0.
518  5.17  0.  0.  0.
519  5.18  0.  0.  0.
520  5.19  0.  0.  0.
521  5.20  0.  0.  0.
522  5.21  0.  0.  0.
523  5.22  0.  0.  0.
524  5.23  0.  0.  0.
525  5.24  0.  0.  0.
526  5.25  0.  0.  0.
527  5.26  0.  0.  0.
528  5.27  0.  0.  0.
529  5.28  0.  0.  0.
530  5.29  0.  0.  0.
531  5.30  0.  0.  0.
532  5.31  0.  0.  0.
533  5.32  0.  0.  0.
534  5.33  0.  0.  0.
535  5.34  0.  0.  0.
536  5.35  0.  0.  0.
537  5.36  0.  0.  0.
538  5.37  0.  0.  0.
539  5.38  0.  0.  0.
540  5.39  0.  0.  0.
541  5.40  0.  0.  0.
542  5.41  0.  0.  0.
543  5.42  0.  0.  0.
544  5.43  0.  0.  0.
545  5.44  0.  0.  0.
546  5.45  0.  0.  0.
547  5.46  0.  0.  0.
548  5.47  0.  0.  0.
549  5.48  0.  0.  0.
550  5.49  0.  0.  0.
551  5.50  0.  0.  0.
552  5.51  0.  0.  0.
553  5.52  0.  0.  0.
554  5.53  0.  0.  0.
555  5.54  0.  0.  0.
556  5.55  0.  0.  0.
557  5.56  0.  0.  0.
558  5.57  0.  0.  0.
559  5.58  0.  0.  0.
560  5.59  0.  0.  0.
561  5.60  0.  0.  0.
562  5.61  0.  0.  0.
563  5.62  0.  0.  0.
564  5.63  0.  0.  0.
565  5.64  0.  0.  0.
566  5.65  0.  0.  0.
567  5.66  0.  0.  0.
568  5.67  0.  0.  0.
569  5.68  0.  0.  0.
570  5.69  0.  0.  0.
571  5.70  0.  0.  0.
572  5.71  0.  0.  0.
573  5.72  0.  0.  0.
574  5.73  0.  0.  0.
575  5.74  0.  0.  0.
576  5.75  0.  0.  0.
577  5.76  0.  0.  0.
578  5.77  0.  0.  0.
579  5.78  0.  0.  0.
580  5.79  0.  0.  0.
581  5.80  0.  0.  0.
582  5.81  0.  0.  0.
583  5.82  0.  0.  0.
584  5.83  0.  0.  0.
585  5.84  0.  0.  0.
586  5.85  0.  0.  0.
587  5.86  0.  0.  0.
588  5.87  0.  0.  0.
589  5.88  0.  0.  0.
590  5.89  0.  0.  0.
591  5.90  0.  0.  0.
592  5.91  0.  0.  0.
593  5.92  0.  0.  0.
594  5.93  0.  0.  0.
595  5.94  0.  0.  0.
596  5.95  0.  0.  0.
597  5.96  0.  0.  0.
598  5.97  0.  0.  0.
599  5.98  0.  0.  0.
600  5.99  0.  0.  0.
1                         7.3130994721420E+00  8.8400391504143E-01
1  0.0000000000000E+00 -4.2974429570464E-10  4.4087042350149E-10
2  1.0000000000000E-02  1.1542150735803E-03 -6.9048836631266E-04
3  2.0000000000000E-02  4.6136693500883E-03 -2.7571988165067E-03
4  3.0000000000000E-02  1.0368789423199E-02 -6.1858858923339E-03
5  4.0000000000000E-02  1.8403617972632E-02 -1.0952869124899E-02
6  5.0000000000000E-02  2.8695812234300E-02 -1.7025127134859E-02
7  6.0000000000000E-02  4.1216643703070E-02 -2.4360431635382E-02
8  7.0000000000000E-02  5.5931000855108E-02 -3.2907523478495E-02
9  8.0000000000000E-02  7.2797397106554E-02 -4.2606333326317E-02
10  9.0000000000000E-02  9.1767986596669E-02 -5.3388249847211E-02
11  1.0000000000000E-01  1.1278859068661E-01 -6.5176438513581E-02
12  1.1000000000000E-01  1.3579873829054E-01 -7.7886214095439E-02
13  1.2000000000000E-01  1.6073172329681E-01 -9.1425469790135E-02
14  1.3000000000000E-01  1.8751468238830E-01 -1.0569516559601E-01
15  1.4000000000000E-01  2.1606869652913E-01 -1.2058987802353E-01
16  1.5000000000000E-01  2.4630891924887E-01 -1.3599841254403E-01
17  1.6000000000000E-01  2.7814473462590E-01 -1.5180447931164E-01
18  1.7000000000000E-01  3.1147994755151E-01 -1.6788743167030E-01
19  1.8000000000000E-01  3.4621300845128E-01 -1.8412306579365E-01
20  1.9000000000000E-01  3.8223727415673E-01 -2.0038447852296E-01
21  2.0000000000000E-01  4.1944130606765E-01 -2.1654297909381E-01
22  2.1000000000000E-01  4.5770920613412E-01 -2.3246904900667E-01
23  2.2000000000000E-01  4.9692099052979E-01 -2.4803334283333E-01
24  2.3000000000000E-01  5.3695300019733E-01 -2.6310772129620E-01
25  2.4000000000000E-01  5.7767834673766E-01 -2.7756630654905E-01
26  2.5000000000000E-01  6.1896739140243E-01 -2.9128654826331E-01
27  2.6000000000000E-01  6.6068825424863E-01 -3.0415028792314E-01
28  2.7000000000000E-01  7.0270734984195E-01 -3.1604480769261E-01
29  2.8000000000000E-01  7.4488994526614E-01 -3.2686384937396E-01
30  2.9000000000000E-01  7.8710073562447E-01 -3.3650858836177E-01
31  3.0000000000000E-01  8.2920443172014E-01 -3.4488854714264E-01
32  3.1000000000000E-01  8.7106635418774E-01 -3.5192243281793E-01
33  3.2000000000000E-01  9.1255302802930E-01 -3.5753888336007E-01
34  3.3000000000000E-01  9.5353277129463E-01 -3.6167710786270E-01
35  3.4000000000000E-01  9.9387627154538E-01 -3.6428740692212E-01
36  3.5000000000000E-01  1.0334571437589E+00 -3.6533156049000E-01
37  3.6000000000000E-01  1.0721524634665E+00 -3.6478307206253E-01
38  3.7000000000000E-01  1.1098432691797E+00 -3.6262725990340E-01
39  3.8000000000000E-01  1.1464150285373E+00 -3.5886118811809E-01
40  3.9000000000000E-01  1.1817580630977E+00 -3.5349343277761E-01
41  4.0000000000000E-01  1.2157679273037E+00 -3.4654368089622E-01
42  4.1000000000000E-01  1.2483457378421E+00 -3.3804216285957E-01
43  4.2000000000000E-01  1.2793984504089E+00 -3.2802892183142E-01
44  4.3000000000000E-01  1.3088390817429E+00 -3.1655292668615E-01
45  4.4000000000000E-01  1.3365868757071E+00 -3.0367103806683E-01
46  4.5000000000000E-01  1.3625674131467E+00 -2.8944684019457E-01