Yb    ONCVPSP-4.0.1  r_core=   2.00372   1.60588   1.91009   1.40785
70.0000     24.0000      230112    zatom,zion,pspd
8      11   3     4   600     0    pspcod,pspxc,lmax,lloc,mmax,r2well
5.99000000  4.00000000  0.00000000    rchrg fchrg qchrg
2     2     2     2     0    nproj
1     1           extension_switch
0                         6.6916375901907E+00  9.6431504718371E-01
1  0.0000000000000E+00  7.9956929965874E-11 -2.2522740270037E-10
2  1.0000000000000E-02  4.6000424181120E-02 -1.5545443921861E-03
3  2.0000000000000E-02  9.1964042837171E-02 -3.1381989955538E-03
4  3.0000000000000E-02  1.3785391286500E-01 -4.7795431321396E-03
5  4.0000000000000E-02  1.8363281806938E-01 -6.5061001342534E-03
6  5.0000000000000E-02  2.2926313775661E-01 -8.3438237634124E-03
7  6.0000000000000E-02  2.7470672143891E-01 -1.0316601765068E-02
8  7.0000000000000E-02  3.1992477159161E-01 -1.2445782004716E-02
9  8.0000000000000E-02  3.6487773632595E-01 -1.4749726405735E-02
10  9.0000000000000E-02  4.0952521374103E-01 -1.7243397631776E-02
11  1.0000000000000E-01  4.5382586960245E-01 -1.9937983128973E-02
12  1.1000000000000E-01  4.9773736986197E-01 -2.2840560768939E-02
13  1.2000000000000E-01  5.4121632938352E-01 -2.5953809915707E-02
14  1.3000000000000E-01  5.8421827807835E-01 -2.9275771282472E-02
15  1.4000000000000E-01  6.2669764547569E-01 -3.2799658451287E-02
16  1.5000000000000E-01  6.6860776456873E-01 -3.6513723405505E-02
17  1.6000000000000E-01  7.0990089557891E-01 -4.0401177875542E-02
18  1.7000000000000E-01  7.5052827007688E-01 -4.4440171728626E-02
19  1.8000000000000E-01  7.9044015568869E-01 -4.8603829048147E-02
20  1.9000000000000E-01  8.2958594140086E-01 -5.2860341953410E-02
21  2.0000000000000E-01  8.6791424326217E-01 -5.7173121611818E-02
22  2.1000000000000E-01  9.0537303006324E-01 -6.1501005298794E-02
23  2.2000000000000E-01  9.4190976836096E-01 -6.5798517771553E-02
24  2.3000000000000E-01  9.7747158600441E-01 -7.0016184647237E-02
25  2.4000000000000E-01  1.0120054531147E+00 -7.4100894919774E-02
26  2.5000000000000E-01  1.0454583792752E+00 -7.7996309218501E-02
27  2.6000000000000E-01  1.0777776255022E+00 -8.1643309910670E-02
28  2.7000000000000E-01  1.1089109293913E+00 -8.4980488685002E-02
29  2.8000000000000E-01  1.1388067416755E+00 -8.7944666828713E-02
30  2.9000000000000E-01  1.1674144722837E+00 -9.0471443031383E-02
31  3.0000000000000E-01  1.1946847438600E+00 -9.2495763219427E-02
32  3.1000000000000E-01  1.2205696505947E+00 -9.3952506648542E-02
33  3.2000000000000E-01  1.2450230201258E+00 -9.4777082262212E-02
34  3.3000000000000E-01  1.2680006761995E+00 -9.4906029164605E-02
35  3.4000000000000E-01  1.2894606997290E+00 -9.4277614958281E-02
36  3.5000000000000E-01  1.3093636858646E+00 -9.2832425663386E-02
37  3.6000000000000E-01  1.3276729946837E+00 -9.0513940965750E-02
38  3.7000000000000E-01  1.3443549931274E+00 -8.7269088637929E-02
39  3.8000000000000E-01  1.3593792858540E+00 -8.3048772138809E-02
40  3.9000000000000E-01  1.3727189327436E+00 -7.7808365624224E-02
41  4.0000000000000E-01  1.3843506508768E+00 -7.1508170890203E-02
42  4.1000000000000E-01  1.3942549989186E+00 -6.4113831121628E-02
43  4.2000000000000E-01  1.4024165419730E+00 -5.5596696728216E-02
44  4.3000000000000E-01  1.4088239951236E+00 -4.5934139013951E-02
45  4.4000000000000E-01  1.4134703440462E+00 -3.5109807941479E-02
46  4.5000000000000E-01  1.4163529412703E+00 -2.3113830815108E-02
47  4.6000000000000E-01  1.4174735768697E+00 -9.9429493091073E-03
48  4.7000000000000E-01  1.4168385225830E+00  4.3994070928708E-03
49  4.8000000000000E-01  1.4144585485965E+00  1.9903112512448E-02
50  4.9000000000000E-01  1.4103489124648E+00  3.6551401518952E-02
51  5.0000000000000E-01  1.4045293198954E+00  5.4320991265038E-02
52  5.1000000000000E-01  1.3970238573793E+00  7.3182268063834E-02
53  5.2000000000000E-01  1.3878608969117E+00  9.3099536837291E-02
54  5.3000000000000E-01  1.3770729733054E+00  1.1403133115278E-01
55  5.4000000000000E-01  1.3646966348607E+00  1.3593078086562E-01
56  5.5000000000000E-01  1.3507722684113E+00  1.5874603370789E-01
57  5.6000000000000E-01  1.3353439000130E+00  1.8242072651465E-01
58  5.7000000000000E-01  1.3184589727809E+00  2.0689450116659E-01
59  5.8000000000000E-01  1.3001681036118E+00  2.3210355975881E-01
60  5.9000000000000E-01  1.2805248207375E+00  2.5798125298757E-01
61  6.0000000000000E-01  1.2595852842556E+00  2.8445869528466E-01
62  6.1000000000000E-01  1.2374079919600E+00  3.1146539983112E-01
63  6.2000000000000E-01  1.2140534729550E+00  3.3892992625142E-01
64  6.3000000000000E-01  1.1895839716685E+00  3.6678053353254E-01
65  6.4000000000000E-01  1.1640631249949E+00  3.9494583053300E-01
66  6.5000000000000E-01  1.1375556353838E+00  4.2335541634788E-01
67  6.6000000000000E-01  1.1101269427491E+00  4.5194050278127E-01
68  6.7000000000000E-01  1.0818428981092E+00  4.8063451124716E-01
69  6.8000000000000E-01  1.0527694418694E+00  5.0937363657657E-01
70  6.9000000000000E-01  1.0229722896371E+00  5.3809737045120E-01
71  7.0000000000000E-01  9.9251662840697E-01  5.6674897751209E-01
72  7.1000000000000E-01  9.6146682587235E-01  5.9527591760343E-01
73  7.2000000000000E-01  9.2988615551058E-01  6.2363020810519E-01
74  7.3000000000000E-01  8.9783653995564E-01  6.5176872087793E-01
75  7.4000000000000E-01  8.6537831500844E-01  6.7965340898780E-01
76  7.5000000000000E-01  8.3257001644904E-01  7.0725145909110E-01
77  7.6000000000000E-01  7.9946819160529E-01  7.3453536613189E-01
78  7.7000000000000E-01  7.6612723740030E-01  7.6148292783607E-01
79  7.8000000000000E-01  7.3259926635025E-01  7.8807715736276E-01
80  7.9000000000000E-01  6.9893400171428E-01  8.1430611339272E-01
81  8.0000000000000E-01  6.6517870271441E-01  8.4016264788378E-01
82  8.1000000000000E-01  6.3137812044512E-01  8.6564407269797E-01
83  8.2000000000000E-01  5.9757448478459E-01  8.9075174729333E-01
84  8.3000000000000E-01  5.6380752230311E-01  9.1549059066796E-01
85  8.4000000000000E-01  5.3011450484263E-01  9.3986852173447E-01
86  8.5000000000000E-01  4.9653032811718E-01  9.6389583327954E-01
87  8.6000000000000E-01  4.6308761935911E-01  9.8758450561919E-01
88  8.7000000000000E-01  4.2981687271416E-01  1.0109474669831E+00
89  8.8000000000000E-01  3.9674661077133E-01  1.0339978085446E+00
90  8.9000000000000E-01  3.6390357030352E-01  1.0567479628477E+00
91  9.0000000000000E-01  3.3131290999553E-01  1.0792088551595E+00
92  9.1000000000000E-01  2.9899843764787E-01  1.1013890379891E+00
93  9.2000000000000E-01  2.6698285407172E-01  1.1232938196541E+00
94  9.3000000000000E-01  2.3528801063324E-01  1.1449243983382E+00
95  9.4000000000000E-01  2.0393517716675E-01  1.1662770135587E+00
96  9.5000000000000E-01  1.7294531675771E-01  1.1873421273472E+00
97  9.6000000000000E-01  1.4233936370017E-01  1.2081036477354E+00
98  9.7000000000000E-01  1.1213850076022E-01  1.2285382073222E+00
99  9.8000000000000E-01  8.2364431729775E-02  1.2486145097771E+00
100  9.9000000000000E-01  5.3039645134494E-02  1.2682927571021E+00
101  1.0000000000000E+00  2.4187664867876E-02  1.2875241703227E+00
102  1.0100000000000E+00 -4.1667165375227E-03  1.3062506160077E+00
103  1.0200000000000E+00 -3.1997226319806E-02  1.3244043506210E+00
104  1.0300000000000E+00 -5.9275925890944E-02  1.3419078941796E+00
105  1.0400000000000E+00 -8.5973055503865E-02  1.3586740440234E+00
106  1.0500000000000E+00 -1.1205691337254E-01  1.3746060386989E+00
107  1.0600000000000E+00 -1.3749377331107E-01  1.3895978809948E+00
108  1.0700000000000E+00 -1.6224784478888E-01  1.4035348280504E+00
109  1.0800000000000E+00 -1.8628127908218E-01  1.4162940551760E+00
110  1.0900000000000E+00 -2.0955422493069E-01  1.4277454985521E+00
111  1.1000000000000E+00 -2.3202493678060E-01  1.4377528803287E+00
112  1.1100000000000E+00 -2.5364993830282E-01  1.4461749177764E+00
113  1.1200000000000E+00 -2.7438424341459E-01  1.4528667160680E+00
114  1.1300000000000E+00 -2.9418163649584E-01  1.4576813419468E+00
115  1.1400000000000E+00 -3.1299501287132E-01  1.4604715729607E+00
116  1.1500000000000E+00 -3.3077677991766E-01  1.4610918140863E+00
117  1.1600000000000E+00 -3.4747931834280E-01  1.4594001704048E+00
118  1.1700000000000E+00 -3.6305550226168E-01  1.4552606609979E+00
119  1.1800000000000E+00 -3.7745927565090E-01  1.4485455553849E+00
120  1.1900000000000E+00 -3.9064628158636E-01  1.4391378095690E+00
121  1.2000000000000E+00 -4.0257453935407E-01  1.4269335741095E+00
122  1.2100000000000E+00 -4.1320516304048E-01  1.4118447414872E+00
123  1.2200000000000E+00 -4.2250311357022E-01  1.3938014944252E+00
124  1.2300000000000E+00 -4.3043797432124E-01  1.3727548106480E+00
125  1.2400000000000E+00 -4.3698473841705E-01  1.3486788728116E+00
126  1.2500000000000E+00 -4.4212459355568E-01  1.3215733249917E+00
127  1.2600000000000E+00 -4.4584568774645E-01  1.2914653090327E+00
128  1.2700000000000E+00 -4.4814385660800E-01  1.2584112053291E+00
129  1.2800000000000E+00 -4.4902328989105E-01  1.2224979930753E+00
130  1.2900000000000E+00 -4.4849711160648E-01  1.1838441346406E+00
131  1.3000000000000E+00 -4.4658784457155E-01  1.1425998775171E+00
132  1.3100000000000E+00 -4.4332772629646E-01  1.0989468551462E+00
133  1.3200000000000E+00 -4.3875883888794E-01  1.0530968547411E+00
134  1.3300000000000E+00 -4.3293301105730E-01  1.0052896060477E+00
135  1.3400000000000E+00 -4.2591144536515E-01  9.5578942973105E-01
136  1.3500000000000E+00 -4.1776401844069E-01  9.0488056754000E-01
137  1.3600000000000E+00 -4.0856819613798E-01  8.5286099874401E-01
138  1.3700000000000E+00 -3.9840749933978E-01  8.0003452828294E-01
139  1.3800000000000E+00 -3.8736944944998E-01  7.4670091178081E-01
140  1.3900000000000E+00 -3.7554291496553E-01  6.9314375841352E-01
141  1.4000000000000E+00 -3.6301478055966E-01  6.3961597046864E-01
142  1.4100000000000E+00 -3.4986578937780E-01  5.8632211787055E-01
143  1.4200000000000E+00 -3.3616737228524E-01  5.3340754205550E-01
144  1.4300000000000E+00 -3.2198701734889E-01  4.8099239924234E-01
145  1.4400000000000E+00 -3.0739333507953E-01  4.2920067090546E-01
146  1.4500000000000E+00 -2.9245587645591E-01  3.7815996031676E-01
147  1.4600000000000E+00 -2.7724483500344E-01  3.2800071768692E-01
148  1.4700000000000E+00 -2.6183070003848E-01  2.7885522830793E-01
149  1.4800000000000E+00 -2.4628389619997E-01  2.3085655646130E-01
150  1.4900000000000E+00 -2.3067441366074E-01  1.8413746055384E-01
151  1.5000000000000E+00 -2.1507143083287E-01  1.3882928220386E-01
152  1.5100000000000E+00 -1.9954293304257E-01  9.5060820274196E-02
153  1.5200000000000E+00 -1.8415533142165E-01  5.2957204401285E-02
154  1.5300000000000E+00 -1.6897308387305E-01  1.2638771033241E-02
155  1.5400000000000E+00 -1.5405832299190E-01 -2.5780040589950E-02
156  1.5500000000000E+00 -1.3947049374813E-01 -6.2191764981600E-02
157  1.5600000000000E+00 -1.2526600457278E-01 -9.6496947881611E-02
158  1.5700000000000E+00 -1.1149789518057E-01 -1.2860513440057E-01
159  1.5800000000000E+00 -9.8215524411926E-02 -1.5843579763309E-01
160  1.5900000000000E+00 -8.5464281206058E-02 -1.8591919810355E-01
161  1.6000000000000E+00 -7.3285321648741E-02 -2.1099716491217E-01
162  1.6100000000000E+00 -6.1715334852589E-02 -2.3362378999463E-01
163  1.6200000000000E+00 -5.0786340158889E-02 -2.5376602777734E-01
164  1.6300000000000E+00 -4.0525517911337E-02 -2.7140419321575E-01
165  1.6400000000000E+00 -3.0955075761755E-02 -2.8653235210222E-01
166  1.6500000000000E+00 -2.2092152150505E-02 -2.9915859851868E-01
167  1.6600000000000E+00 -1.3948758281281E-02 -3.0930521529896E-01
168  1.6700000000000E+00 -6.5317595635911E-03 -3.1700871443741E-01
169  1.6800000000000E+00  1.5710285155039E-04 -3.2231975544563E-01
170  1.6900000000000E+00  6.1211502038350E-03 -3.2530294087234E-01
171  1.7000000000000E+00  1.1368664038760E-02 -3.2603648927691E-01
172  1.7100000000000E+00  1.5912744395585E-02 -3.2461178710757E-01
173  1.7200000000000E+00  1.9771129157234E-02 -3.2113282218938E-01
174  1.7300000000000E+00  2.2965975702896E-02 -3.1571550221876E-01
175  1.7400000000000E+00  2.5523606936953E-02 -3.0848686496249E-01
176  1.7500000000000E+00  2.7474222187388E-02 -2.9958418057661E-01
177  1.7600000000000E+00  2.8851577491499E-02 -2.8915396157750E-01
178  1.7700000000000E+00  2.9692636848405E-02 -2.7735088456681E-01
179  1.7800000000000E+00  3.0037194929964E-02 -2.6433662344489E-01
180  1.7900000000000E+00  2.9927479214179E-02 -2.5027862216837E-01
181  1.8000000000000E+00  2.9407730708151E-02 -2.3534880138378E-01
182  1.8100000000000E+00  2.8523768864271E-02 -2.1972221766743E-01
183  1.8200000000000E+00  2.7322543877843E-02 -2.0357568476935E-01
184  1.8300000000000E+00  2.5851680341307E-02 -1.8708636916007E-01
185  1.8400000000000E+00  2.4159016214903E-02 -1.7043037205138E-01
186  1.8500000000000E+00  2.2292141179169E-02 -1.5378131041501E-01
187  1.8600000000000E+00  2.0297938428917E-02 -1.3730890948858E-01
188  1.8700000000000E+00  1.8222135519377E-02 -1.2117762367642E-01
189  1.8800000000000E+00  1.6108853122991E-02 -1.0554525543627E-01
190  1.8900000000000E+00  1.4000216702276E-02 -9.0561755135817E-02
191  1.9000000000000E+00  1.1935908244668E-02 -7.6367865589817E-02
192  1.9100000000000E+00  9.9521096796518E-03 -6.3092025797764E-02
193  1.9200000000000E+00  8.0807334024294E-03 -5.0848046566314E-02
194  1.9300000000000E+00  6.3527502770255E-03 -3.9744508099332E-02
195  1.9400000000000E+00  4.7955311623733E-03 -2.9877273872098E-02
196  1.9500000000000E+00  3.4321807102111E-03 -2.1327546781553E-02
197  1.9600000000000E+00  2.2814206152939E-03 -1.4161473585091E-02
198  1.9700000000000E+00  1.3575711921392E-03 -8.4306493897511E-03
199  1.9800000000000E+00  6.6950878668882E-04 -4.1659352062131E-03
200  1.9900000000000E+00  2.2128688432874E-04 -1.3817311708177E-03
201  2.0000000000000E+00  2.4098696050616E-05 -1.5129808148457E-04
202  2.0100000000000E+00 -7.5548624698491E-06  4.7517355661420E-05
203  2.0200000000000E+00  2.3871727978114E-06 -1.4964891835606E-05
204  2.03 -0.  0.
205  2.04 -0.  0.
206  2.05 -0. -0.
207  2.06  0.  0.
208  2.07  0.  0.
209  2.08  0.  0.
210  2.09  0.  0.
211  2.10  0.  0.
212  2.11  0.  0.
213  2.12  0.  0.
214  2.13  0.  0.
215  2.14  0.  0.
216  2.15  0.  0.
217  2.16  0.  0.
218  2.17  0.  0.
219  2.18  0.  0.
220  2.19  0.  0.
221  2.20  0.  0.
222  2.21  0.  0.
223  2.22  0.  0.
224  2.23  0.  0.
225  2.24  0.  0.
226  2.25  0.  0.
227  2.26  0.  0.
228  2.27  0.  0.
229  2.28  0.  0.
230  2.29  0.  0.
231  2.30  0.  0.
232  2.31  0.  0.
233  2.32  0.  0.
234  2.33  0.  0.
235  2.34  0.  0.
236  2.35  0.  0.
237  2.36  0.  0.
238  2.37  0.  0.
239  2.38  0.  0.
240  2.39  0.  0.
241  2.40  0.  0.
242  2.41  0.  0.
243  2.42  0.  0.
244  2.43  0.  0.
245  2.44  0.  0.
246  2.45  0.  0.
247  2.46  0.  0.
248  2.47  0.  0.
249  2.48  0.  0.
250  2.49  0.  0.
251  2.50  0.  0.
252  2.51  0.  0.
253  2.52  0.  0.
254  2.53  0.  0.
255  2.54  0.  0.
256  2.55  0.  0.
257  2.56  0.  0.
258  2.57  0.  0.
259  2.58  0.  0.
260  2.59  0.  0.
261  2.60  0.  0.
262  2.61  0.  0.
263  2.62  0.  0.
264  2.63  0.  0.
265  2.64  0.  0.
266  2.65  0.  0.
267  2.66  0.  0.
268  2.67  0.  0.
269  2.68  0.  0.
270  2.69  0.  0.
271  2.70  0.  0.
272  2.71  0.  0.
273  2.72  0.  0.
274  2.73  0.  0.
275  2.74  0.  0.
276  2.75  0.  0.
277  2.76  0.  0.
278  2.77  0.  0.
279  2.78  0.  0.
280  2.79  0.  0.
281  2.80  0.  0.
282  2.81  0.  0.
283  2.82  0.  0.
284  2.83  0.  0.
285  2.84  0.  0.
286  2.85  0.  0.
287  2.86  0.  0.
288  2.87  0.  0.
289  2.88  0.  0.
290  2.89  0.  0.
291  2.90  0.  0.
292  2.91  0.  0.
293  2.92  0.  0.
294  2.93  0.  0.
295  2.94  0.  0.
296  2.95  0.  0.
297  2.96  0.  0.
298  2.97  0.  0.
299  2.98  0.  0.
300  2.99  0.  0.
301  3.00  0.  0.
302  3.01  0.  0.
303  3.02  0.  0.
304  3.03  0.  0.
305  3.04  0.  0.
306  3.05  0.  0.
307  3.06  0.  0.
308  3.07  0.  0.
309  3.08  0.  0.
310  3.09  0.  0.
311  3.10  0.  0.
312  3.11  0.  0.
313  3.12  0.  0.
314  3.13  0.  0.
315  3.14  0.  0.
316  3.15  0.  0.
317  3.16  0.  0.
318  3.17  0.  0.
319  3.18  0.  0.
320  3.19  0.  0.
321  3.20  0.  0.
322  3.21  0.  0.
323  3.22  0.  0.
324  3.23  0.  0.
325  3.24  0.  0.
326  3.25  0.  0.
327  3.26  0.  0.
328  3.27  0.  0.
329  3.28  0.  0.
330  3.29  0.  0.
331  3.30  0.  0.
332  3.31  0.  0.
333  3.32  0.  0.
334  3.33  0.  0.
335  3.34  0.  0.
336  3.35  0.  0.
337  3.36  0.  0.
338  3.37  0.  0.
339  3.38  0.  0.
340  3.39  0.  0.
341  3.40  0.  0.
342  3.41  0.  0.
343  3.42  0.  0.
344  3.43  0.  0.
345  3.44  0.  0.
346  3.45  0.  0.
347  3.46  0.  0.
348  3.47  0.  0.
349  3.48  0.  0.
350  3.49  0.  0.
351  3.50  0.  0.
352  3.51  0.  0.
353  3.52  0.  0.
354  3.53  0.  0.
355  3.54  0.  0.
356  3.55  0.  0.
357  3.56  0.  0.
358  3.57  0.  0.
359  3.58  0.  0.
360  3.59  0.  0.
361  3.60  0.  0.
362  3.61  0.  0.
363  3.62  0.  0.
364  3.63  0.  0.
365  3.64  0.  0.
366  3.65  0.  0.
367  3.66  0.  0.
368  3.67  0.  0.
369  3.68  0.  0.
370  3.69  0.  0.
371  3.70  0.  0.
372  3.71  0.  0.
373  3.72  0.  0.
374  3.73  0.  0.
375  3.74  0.  0.
376  3.75  0.  0.
377  3.76  0.  0.
378  3.77  0.  0.
379  3.78  0.  0.
380  3.79  0.  0.
381  3.80  0.  0.
382  3.81  0.  0.
383  3.82  0.  0.
384  3.83  0.  0.
385  3.84  0.  0.
386  3.85  0.  0.
387  3.86  0.  0.
388  3.87  0.  0.
389  3.88  0.  0.
390  3.89  0.  0.
391  3.90  0.  0.
392  3.91  0.  0.
393  3.92  0.  0.
394  3.93  0.  0.
395  3.94  0.  0.
396  3.95  0.  0.
397  3.96  0.  0.
398  3.97  0.  0.
399  3.98  0.  0.
400  3.99  0.  0.
401  4.00  0.  0.
402  4.01  0.  0.
403  4.02  0.  0.
404  4.03  0.  0.
405  4.04  0.  0.
406  4.05  0.  0.
407  4.06  0.  0.
408  4.07  0.  0.
409  4.08  0.  0.
410  4.09  0.  0.
411  4.10  0.  0.
412  4.11  0.  0.
413  4.12  0.  0.
414  4.13  0.  0.
415  4.14  0.  0.
416  4.15  0.  0.
417  4.16  0.  0.
418  4.17  0.  0.
419  4.18  0.  0.
420  4.19  0.  0.
421  4.20  0.  0.
422  4.21  0.  0.
423  4.22  0.  0.
424  4.23  0.  0.
425  4.24  0.  0.
426  4.25  0.  0.
427  4.26  0.  0.
428  4.27  0.  0.
429  4.28  0.  0.
430  4.29  0.  0.
431  4.30  0.  0.
432  4.31  0.  0.
433  4.32  0.  0.
434  4.33  0.  0.
435  4.34  0.  0.
436  4.35  0.  0.
437  4.36  0.  0.
438  4.37  0.  0.
439  4.38  0.  0.
440  4.39  0.  0.
441  4.40  0.  0.
442  4.41  0.  0.
443  4.42  0.  0.
444  4.43  0.  0.
445  4.44  0.  0.
446  4.45  0.  0.
447  4.46  0.  0.
448  4.47  0.  0.
449  4.48  0.  0.
450  4.49  0.  0.
451  4.50  0.  0.
452  4.51  0.  0.
453  4.52  0.  0.
454  4.53  0.  0.
455  4.54  0.  0.
456  4.55  0.  0.
457  4.56  0.  0.
458  4.57  0.  0.
459  4.58  0.  0.
460  4.59  0.  0.
461  4.60  0.  0.
462  4.61  0.  0.
463  4.62  0.  0.
464  4.63  0.  0.
465  4.64  0.  0.
466  4.65  0.  0.
467  4.66  0.  0.
468  4.67  0.  0.
469  4.68  0.  0.
470  4.69  0.  0.
471  4.70  0.  0.
472  4.71  0.  0.
473  4.72  0.  0.
474  4.73  0.  0.
475  4.74  0.  0.
476  4.75  0.  0.
477  4.76  0.  0.
478  4.77  0.  0.
479  4.78  0.  0.
480  4.79  0.  0.
481  4.80  0.  0.
482  4.81  0.  0.
483  4.82  0.  0.
484  4.83  0.  0.
485  4.84  0.  0.
486  4.85  0.  0.
487  4.86  0.  0.
488  4.87  0.  0.
489  4.88  0.  0.
490  4.89  0.  0.
491  4.90  0.  0.
492  4.91  0.  0.
493  4.92  0.  0.
494  4.93  0.  0.
495  4.94  0.  0.
496  4.95  0.  0.
497  4.96  0.  0.
498  4.97  0.  0.
499  4.98  0.  0.
500  4.99  0.  0.
501  5.00  0.  0.
502  5.01  0.  0.
503  5.02  0.  0.
504  5.03  0.  0.
505  5.04  0.  0.
506  5.05  0.  0.
507  5.06  0.  0.
508  5.07  0.  0.
509  5.08  0.  0.
510  5.09  0.  0.
511  5.10  0.  0.
512  5.11  0.  0.
513  5.12  0.  0.
514  5.13  0.  0.
515  5.14  0.  0.
516  5.15  0.  0.
517  5.16  0.  0.
518  5.17  0.  0.
519  5.18  0.  0.
520  5.19  0.  0.
521  5.20  0.  0.
522  5.21  0.  0.
523  5.22  0.  0.
524  5.23  0.  0.
525  5.24  0.  0.
526  5.25  0.  0.
527  5.26  0.  0.
528  5.27  0.  0.
529  5.28  0.  0.
530  5.29  0.  0.
531  5.30  0.  0.
532  5.31  0.  0.
533  5.32  0.  0.
534  5.33  0.  0.
535  5.34  0.  0.
536  5.35  0.  0.
537  5.36  0.  0.
538  5.37  0.  0.
539  5.38  0.  0.
540  5.39  0.  0.
541  5.40  0.  0.
542  5.41  0.  0.
543  5.42  0.  0.
544  5.43  0.  0.
545  5.44  0.  0.
546  5.45  0.  0.
547  5.46  0.  0.
548  5.47  0.  0.
549  5.48  0.  0.
550  5.49  0.  0.
551  5.50  0.  0.
552  5.51  0.  0.
553  5.52  0.  0.
554  5.53  0.  0.
555  5.54  0.  0.
556  5.55  0.  0.
557  5.56  0.  0.
558  5.57  0.  0.
559  5.58  0.  0.
560  5.59  0.  0.
561  5.60  0.  0.
562  5.61  0.  0.
563  5.62  0.  0.
564  5.63  0.  0.
565  5.64  0.  0.
566  5.65  0.  0.
567  5.66  0.  0.
568  5.67  0.  0.
569  5.68  0.  0.
570  5.69  0.  0.
571  5.70  0.  0.
572  5.71  0.  0.
573  5.72  0.  0.
574  5.73  0.  0.
575  5.74  0.  0.
576  5.75  0.  0.
577  5.76  0.  0.
578  5.77  0.  0.
579  5.78  0.  0.
580  5.79  0.  0.
581  5.80  0.  0.
582  5.81  0.  0.
583  5.82  0.  0.
584  5.83  0.  0.
585  5.84  0.  0.
586  5.85  0.  0.
587  5.86  0.  0.
588  5.87  0.  0.
589  5.88  0.  0.
590  5.89  0.  0.
591  5.90  0.  0.
592  5.91  0.  0.
593  5.92  0.  0.
594  5.93  0.  0.
595  5.94  0.  0.
596  5.95  0.  0.
597  5.96  0.  0.
598  5.97  0.  0.
599  5.98  0.  0.
600  5.99  0.  0.
1                         6.2494681571091E+00  5.4955880261901E-01
1  0.0000000000000E+00 -4.4025297296635E-10  3.6477766640619E-10
2  1.0000000000000E-02  1.2202631781754E-03 -8.1168898915375E-04
3  2.0000000000000E-02  4.8773502749801E-03 -3.2399335859875E-03
4  3.0000000000000E-02  1.0960156201596E-02 -7.2643038995277E-03
5  4.0000000000000E-02  1.9450180173662E-02 -1.2850874520293E-02
6  5.0000000000000E-02  3.0321538237717E-02 -1.9952412300910E-02
7  6.0000000000000E-02  4.3540982741340E-02 -2.8508641511077E-02
8  7.0000000000000E-02  5.9067930613813E-02 -3.8446588461815E-02
9  8.0000000000000E-02  7.6854502764376E-02 -4.9681008058745E-02
10  9.0000000000000E-02  9.6845577278601E-02 -6.2114894943123E-02
11  1.0000000000000E-01  1.1897885938819E-01 -7.5640081884649E-02
12  1.1000000000000E-01  1.4318497139590E-01 -9.0137927881432E-02
13  1.2000000000000E-01  1.6938756584733E-01 -1.0548009798350E-01
14  1.3000000000000E-01  1.9750346524941E-01 -1.2152943617911E-01
15  1.4000000000000E-01  2.2744283153813E-01 -1.3814093176666E-01
16  1.5000000000000E-01  2.5910936829539E-01 -1.5516277848552E-01
17  1.6000000000000E-01  2.9240055840690E-01 -1.7243752430975E-01
18  1.7000000000000E-01  3.2720793944636E-01 -1.8980330824139E-01
19  1.8000000000000E-01  3.6341741857022E-01 -2.0709517870273E-01
20  1.9000000000000E-01  4.0090962812248E-01 -2.2414648625308E-01
21  2.0000000000000E-01  4.3956032249143E-01 -2.4079034138848E-01
22  2.1000000000000E-01  4.7924081604229E-01 -2.5686112616458E-01
23  2.2000000000000E-01  5.1981846118689E-01 -2.7219604636648E-01
24  2.3000000000000E-01  5.6115716486017E-01 -2.8663670898537E-01
25  2.4000000000000E-01  6.0311794087027E-01 -3.0003070790648E-01
26  2.5000000000000E-01  6.4555949479215E-01 -3.1223319901984E-01
27  2.6000000000000E-01  6.8833883730350E-01 -3.2310844449102E-01
28  2.7000000000000E-01  7.3131192113278E-01 -3.3253130472491E-01
29  2.8000000000000E-01  7.7433429612179E-01 -3.4038865567043E-01
30  2.9000000000000E-01  8.1726177631538E-01 -3.4658070859383E-01
31  3.0000000000000E-01  8.5995111249444E-01 -3.5102220933081E-01
32  3.1000000000000E-01  9.0226066317999E-01 -3.5364349434389E-01
33  3.2000000000000E-01  9.4405105686667E-01 -3.5439138168691E-01
34  3.3000000000000E-01  9.8518583810518E-01 -3.5322987622590E-01
35  3.4000000000000E-01  1.0255320900501E+00 -3.5014067019132E-01
36  3.5000000000000E-01  1.0649610262294E+00 -3.4512342233448E-01
37  3.6000000000000E-01  1.1033485445731E+00 -3.3819580161666E-01
38  3.7000000000000E-01  1.1405757371653E+00 -3.2939328444481E-01
39  3.8000000000000E-01  1.1765293497433E+00 -3.1876869794836E-01
40  3.9000000000000E-01  1.2111021856621E+00 -3.0639150561803E-01
41  4.0000000000000E-01  1.2441934498556E+00 -2.9234683574551E-01
42  4.1000000000000E-01  1.2757090292442E+00 -2.7673425744546E-01
43  4.2000000000000E-01  1.3055617070514E+00 -2.5966631353561E-01
44  4.3000000000000E-01  1.3336713095775E+00 -2.4126682411799E-01
45  4.4000000000000E-01  1.3599647851143E+00 -2.2166897925773E-01
46  4.5000000000000E-01  1.3843762158571E+00 -2.0101324360870E-01
47  4.6000000000000E-01  1.4068467648500E+00 -1.7944510009482E-01
48  4.7000000000000E-01  1.4273245611603E+00 -1.5711266373307E-01
49  4.8000000000000E-01  1.4457645276086E+00 -1.3416420028796E-01
50  4.9000000000000E-01  1.4621281564386E+00 -1.1074558759317E-01
51  5.0000000000000E-01  1.4763832392900E+00 -8.6997759982162E-02
52  5.1000000000000E-01  1.4885035587035E+00 -6.3054178264211E-02
53  5.2000000000000E-01  1.4984685491269E+00 -3.9038368998836E-02
54  5.3000000000000E-01  1.5062629359848E+00 -1.5061577408650E-02
55  5.4000000000000E-01  1.5118763618005E+00  8.7794219157321E-03
56  5.5000000000000E-01  1.5153030086145E+00  3.2404313352522E-02
57  5.6000000000000E-01  1.5165412260112E+00  5.5750986263327E-02
58  5.7000000000000E-01  1.5155931739415E+00  7.8776999938433E-02
59  5.8000000000000E-01  1.5124644892108E+00  1.0146073214052E-01
60  5.9000000000000E-01  1.5071639839944E+00  1.2380218009301E-01
61  6.0000000000000E-01  1.4997033840414E+00  1.4582338765579E-01
62  6.1000000000000E-01  1.4900971133606E+00  1.6756847797814E-01
63  6.2000000000000E-01  1.4783621311383E+00  1.8910327704077E-01
64  6.3000000000000E-01  1.4645178254588E+00  2.1051452010097E-01
65  6.4000000000000E-01  1.4485859670870E+00  2.3190864003395E-01
66  6.5000000000000E-01  1.4305907251614E+00  2.5341014380247E-01
67  6.6000000000000E-01  1.4105587451588E+00  2.7515959066240E-01
68  6.7000000000000E-01  1.3885192879585E+00  2.9731119309219E-01
69  6.8000000000000E-01  1.3645044272856E+00  3.2003006868421E-01
70  6.9000000000000E-01  1.3385493012758E+00  3.4348917821771E-01
71  7.0000000000000E-01  1.3106924124217E+00  3.6786599171061E-01
72  7.1000000000000E-01  1.2809759687524E+00  3.9333893028721E-01
73  7.2000000000000E-01  1.2494462578016E+00  4.2008363707403E-01
74  7.3000000000000E-01  1.2161540437702E+00  4.4826913492818E-01
75  7.4000000000000E-01  1.1811549772980E+00  4.7805393250566E-01
76  7.5000000000000E-01  1.1445100064734E+00  5.0958214289688E-01
77  7.6000000000000E-01  1.1062857771319E+00  5.4297968071785E-01
78  7.7000000000000E-01  1.0665550101513E+00  5.7835060408766E-01
79  7.8000000000000E-01  1.0253968433593E+00  6.1577366730810E-01
80  7.9000000000000E-01  9.8289712582731E-01  6.5529914827000E-01
81  8.0000000000000E-01  9.3914865274630E-01  6.9694601164861E-01
82  8.1000000000000E-01  8.9425132975938E-01  7.4069946484147E-01
83  8.2000000000000E-01  8.4831225655478E-01  7.8650895839612E-01
84  8.3000000000000E-01  8.0144572069297E-01  8.3428667644480E-01
85  8.4000000000000E-01  7.5377309403227E-01  8.8390655549670E-01
86  8.5000000000000E-01  7.0542262570758E-01  9.3520386195314E-01
87  8.6000000000000E-01  6.5652912737862E-01  9.8797535003501E-01
88  8.7000000000000E-01  6.0723354836695E-01  1.0419800125935E+00
89  8.8000000000000E-01  5.5768244030871E-01  1.0969404276751E+00
90  8.9000000000000E-01  5.0802731302481E-01  1.1525446939027E+00
91  9.0000000000000E-01  4.5842388541120E-01  1.2084489378983E+00
92  9.1000000000000E-01  4.0903123723660E-01  1.2642803672867E+00
93  9.2000000000000E-01  3.6001086976019E-01  1.3196408334815E+00
94  9.3000000000000E-01  3.1152568500488E-01  1.3741108596310E+00
95  9.4000000000000E-01  2.6373889529968E-01  1.4272540809846E+00
96  9.5000000000000E-01  2.1681287629844E-01  1.4786220376808E+00
97  9.6000000000000E-01  1.7090797805306E-01  1.5277592537202E+00
98  9.7000000000000E-01  1.2618130983454E-01  1.5742085307927E+00
99  9.8000000000000E-01  8.2785515224682E-02  1.6175163818053E+00
100  9.9000000000000E-01  4.0867554520883E-02  1.6572385264814E+00
101  1.0000000000000E+00  5.6751168852557E-04  1.6929453703516E+00
102  1.0100000000000E+00 -3.7982557053115E-02  1.7242273888544E+00
103  1.0200000000000E+00 -7.4659716418802E-02  1.7507003401337E+00
104  1.0300000000000E+00 -1.0935117126207E-01  1.7720102334163E+00
105  1.0400000000000E+00 -1.4195519721024E-01  1.7878379845465E+00
106  1.0500000000000E+00 -1.7238196962691E-01  1.7979036962314E+00
107  1.0600000000000E+00 -2.0055427957622E-01  1.8019705077146E+00
108  1.0700000000000E+00 -2.2640812749980E-01  1.7998479668018E+00
109  1.0800000000000E+00 -2.4989318756844E-01  1.7913948861949E+00
110  1.0900000000000E+00 -2.7097313810508E-01  1.7765216558281E+00
111  1.1000000000000E+00 -2.8962585602012E-01  1.7551919930119E+00
112  1.1100000000000E+00 -3.0584347581906E-01  1.7274241225329E+00
113  1.1200000000000E+00 -3.1963231635480E-01  1.6932913890836E+00
114  1.1300000000000E+00 -3.3101268104820E-01  1.6529223142753E+00
115  1.1400000000000E+00 -3.4001853971375E-01  1.6065001197033E+00
116  1.1500000000000E+00 -3.4669710233254E-01  1.5542617457934E+00
117  1.1600000000000E+00 -3.5110829703640E-01  1.4964964031498E+00
118  1.1700000000000E+00 -3.5332416613100E-01  1.4335436985495E+00
119  1.1800000000000E+00 -3.5342819511389E-01  1.3657913812683E+00
120  1.1900000000000E+00 -3.5151459026394E-01  1.2936727567774E+00
121  1.2000000000000E+00 -3.4768752041649E-01  1.2176638137434E+00
122  1.2100000000000E+00 -3.4206033791744E-01  1.1382801063524E+00
123  1.2200000000000E+00 -3.3475479241356E-01  1.0560734270844E+00
124  1.2300000000000E+00 -3.2590024899937E-01  9.7162829480070E-01
125  1.2400000000000E+00 -3.1563291925177E-01  8.8555826920450E-01
126  1.2500000000000E+00 -3.0409510979813E-01  7.9850208520977E-01
127  1.2600000000000E+00 -2.9143448817027E-01  7.1111957904478E-01
128  1.2700000000000E+00 -2.7780335981800E-01  6.2408735215238E-01
129  1.2800000000000E+00 -2.6335794319349E-01  5.3809408870739E-01
130  1.2900000000000E+00 -2.4825762170752E-01  4.5383540760575E-01
131  1.3000000000000E+00 -2.3266414212529E-01  3.7200809020338E-01
132  1.3100000000000E+00 -2.1674071853024E-01  2.9330348055372E-01
133  1.3200000000000E+00 -2.0065098925550E-01  2.1839980506676E-01
134  1.3300000000000E+00 -1.8455776121623E-01  1.4795310362389E-01