Yb    ONCVPSP-4.0.1  r_core=   2.00372   1.60588   1.91009   1.30252
70.0000     24.0000      241104    zatom,zion,pspd
8      11   3     4   600     0    pspcod,pspxc,lmax,lloc,mmax,r2well
5.99000000  4.00000000  0.00000000    rchrg fchrg qchrg
3     2     2     2     0    nproj
1     1           extension_switch
0                         1.2111433086667E+01  3.1949536146927E+00  6.3008155054371E-01
1  0.0000000000000E+00 -9.5966290469818E-10  1.8813424429442E-09 -2.7622930054427E-09
2  1.0000000000000E-02  6.6244441476213E-02 -2.8714337110507E-02  5.1933428002917E-02
3  2.0000000000000E-02  1.3226205782548E-01 -5.7086971675208E-02  1.0335689154165E-01
4  3.0000000000000E-02  1.9782794986921E-01 -8.4779936725521E-02  1.5376611727028E-01
5  4.0000000000000E-02  2.6272104867538E-01 -1.1146269351303E-01  2.0266814975563E-01
6  5.0000000000000E-02  3.2672597680311E-01 -1.3681573876686E-01  2.4958685033308E-01
7  6.0000000000000E-02  3.8963484558013E-01 -1.6053408507499E-01  2.9406820581850E-01
8  7.0000000000000E-02  4.5124896822852E-01 -1.8233057432716E-01  3.3568538696780E-01
9  8.0000000000000E-02  5.1138046961383E-01 -2.0193898603882E-01  3.7404349933801E-01
10  9.0000000000000E-02  5.6985377457212E-01 -2.1911690468797E-01  4.0878397260104E-01
11  1.0000000000000E-01  6.2650695815732E-01 -2.3364831291937E-01  4.3958853836152E-01
12  1.1000000000000E-01  6.8119294273078E-01 -2.4534588057038E-01  4.6618275108863E-01
13  1.2000000000000E-01  7.3378052857084E-01 -2.5405292291933E-01  4.8833901184278E-01
14  1.3000000000000E-01  7.8415524659162E-01 -2.5964500531250E-01  5.0587906000776E-01
15  1.4000000000000E-01  8.3222002380702E-01 -2.6203117534908E-01  5.1867590416859E-01
16  1.5000000000000E-01  8.7789565433653E-01 -2.6115480805255E-01  5.2665516954473E-01
17  1.6000000000000E-01  9.2112107099753E-01 -2.5699405388361E-01  5.2979584592646E-01
18  1.7000000000000E-01  9.6185341484242E-01 -2.4956188400807E-01  5.2813042680474E-01
19  1.8000000000000E-01  1.0000679023496E+00 -2.3890573187047E-01  5.2174443725368E-01
20  1.9000000000000E-01  1.0357574923409E+00 -2.2510673479193E-01  5.1077535505158E-01
21  2.0000000000000E-01  1.0689323570450E+00 -2.0827858395389E-01  4.9541093642861E-01
22  2.1000000000000E-01  1.0996191640346E+00 -1.8856599569974E-01  4.7588696463996E-01
23  2.2000000000000E-01  1.1278601780002E+00 -1.6614282152653E-01  4.5248444619590E-01
24  2.3000000000000E-01  1.1537121934703E+00 -1.4120981840501E-01  4.2552628597234E-01
25  2.4000000000000E-01  1.1772453116087E+00 -1.1399210510245E-01  3.9537347849432E-01
26  2.5000000000000E-01  1.1985415761016E+00 -8.4736333946534E-02  3.6242085836880E-01
27  2.6000000000000E-01  1.2176934848616E+00 -5.3707610911897E-02  3.2709245806935E-01
28  2.7000000000000E-01  1.2348023957997E+00 -2.1186199995339E-02  2.8983652598883E-01
29  2.8000000000000E-01  1.2499768462389E+00  1.2535949471328E-02  2.5112026181106E-01
30  2.9000000000000E-01  1.2633308066366E+00  4.7158811666909E-02  2.1142432977035E-01
31  3.0000000000000E-01  1.2749818901423E+00  8.2377986593496E-02  1.7123721320780E-01
32  3.1000000000000E-01  1.2850495401227E+00  1.1788845185923E-01  1.3104947597222E-01
33  3.2000000000000E-01  1.2936532181339E+00  1.5338831913854E-01  9.1347997609155E-02
34  3.3000000000000E-01  1.3009106149016E+00  1.8858255023639E-01  5.2610249921901E-02
35  3.4000000000000E-01  1.3069359066819E+00  2.2318658793568E-01  1.5298682346302E-02
36  3.5000000000000E-01  1.3118380789132E+00  2.5692985758529E-01 -2.0144717338683E-02
37  3.6000000000000E-01  1.3157193383492E+00  2.8955909668949E-01 -5.3303622138531E-02
38  3.7000000000000E-01  1.3186736338698E+00  3.2084147158242E-01 -8.3792262453783E-02
39  3.8000000000000E-01  1.3207853049322E+00  3.5056744258773E-01 -1.1125996102711E-01
40  3.9000000000000E-01  1.3221278751440E+00  3.7855334186086E-01 -1.3539525101291E-01
41  4.0000000000000E-01  1.3227630067381E+00  4.0464363135195E-01 -1.5592952656003E-01
42  4.1000000000000E-01  1.3227396298197E+00  4.2871281198721E-01 -1.7264018054259E-01
43  4.2000000000000E-01  1.3220932581669E+00  4.5066695919371E-01 -1.8535318988551E-01
44  4.3000000000000E-01  1.3208455011062E+00  4.7044486425728E-01 -1.9394511527020E-01
45  4.4000000000000E-01  1.3190037786010E+00  4.8801876564112E-01 -1.9834448877890E-01
46  4.5000000000000E-01  1.3165612441932E+00  5.0339465926140E-01 -1.9853257018572E-01
47  4.6000000000000E-01  1.3134969178628E+00  5.1661218175739E-01 -1.9454346004338E-01
48  4.7000000000000E-01  1.3097760282541E+00  5.2774406594043E-01 -1.8646356535199E-01
49  4.8000000000000E-01  1.3053505610805E+00  5.3689517280806E-01 -1.7443042135623E-01
50  4.9000000000000E-01  1.3001600079053E+00  5.4420110969315E-01 -1.5863088079373E-01
51  5.0000000000000E-01  1.2941323069335E+00  5.4982644922771E-01 -1.3929868962838E-01
52  5.1000000000000E-01  1.2871849649662E+00  5.5396256876449E-01 -1.1671147584182E-01
53  5.2000000000000E-01  1.2792263473120E+00  5.5682513466455E-01 -9.1187185145687E-02
54  5.3000000000000E-01  1.2701571202276E+00  5.5865126035300E-01 -6.3080004409884E-02
55  5.4000000000000E-01  1.2598718284283E+00  5.5969637121811E-01 -3.2775820099999E-02
56  5.5000000000000E-01  1.2482605883715E+00  5.6023081322392E-01 -6.8726499536871E-04
57  5.6000000000000E-01  1.2352108764167E+00  5.6053624546508E-01  3.2751588172343E-02
58  5.7000000000000E-01  1.2206093896167E+00  5.6090185978515E-01  6.7090822810889E-02
59  5.8000000000000E-01  1.2043439558196E+00  5.6162047294288E-01  1.0187049698514E-01
60  5.9000000000000E-01  1.1863054689758E+00  5.6298453863383E-01  1.3662661388202E-01
61  6.0000000000000E-01  1.1663898250623E+00  5.6528212791072E-01  1.7089717142050E-01
62  6.1000000000000E-01  1.1444998338667E+00  5.6879292718870E-01  2.0422821675222E-01
63  6.2000000000000E-01  1.1205470820175E+00  5.7378430304843E-01  2.3617983085599E-01
64  6.3000000000000E-01  1.0944537231124E+00  5.8050748246308E-01  2.6633196880209E-01
65  6.4000000000000E-01  1.0661541715724E+00  5.8919389587530E-01  2.9429008255883E-01
66  6.5000000000000E-01  1.0355966779303E+00  6.0005172875121E-01  3.1969045541993E-01
67  6.6000000000000E-01  1.0027447646396E+00  6.1326272485435E-01  3.4220518023711E-01
68  6.7000000000000E-01  9.6757850314066E-01  6.2897928155430E-01  3.6154671759610E-01
69  6.8000000000000E-01  9.3009561482737E-01  6.4732187403285E-01  3.7747197485308E-01
70  6.9000000000000E-01  8.9031238069940E-01  6.6837684133082E-01  3.8978585248244E-01
71  7.0000000000000E-01  8.4826434682562E-01  6.9219456283598E-01  3.9834421041316E-01
72  7.1000000000000E-01  8.0400681526080E-01  7.1878804910331E-01  4.0305621387963E-01
73  7.2000000000000E-01  7.5761511271081E-01  7.4813196588763E-01  4.0388602569205E-01
74  7.3000000000000E-01  7.0918463199822E-01  7.8016210501942E-01  4.0085381965537E-01
75  7.4000000000000E-01  6.5883064420102E-01  8.1477531033947E-01  3.9403609803408E-01
76  7.5000000000000E-01  6.0668788218270E-01  8.5182986139996E-01  3.8356530436938E-01
77  7.6000000000000E-01  5.5290989906457E-01  8.9114631211102E-01  3.6962873150124E-01
78  7.7000000000000E-01  4.9766820796832E-01  9.3250877603987E-01  3.5246673322205E-01
79  7.8000000000000E-01  4.4115121204147E-01  9.7566664472757E-01  3.3237025648076E-01
80  7.9000000000000E-01  3.8356293633116E-01  1.0203367202477E+00  3.0967771936247E-01
81  8.0000000000000E-01  3.2512157545896E-01  1.0662057383606E+00  2.8477126808444E-01
82  8.1000000000000E-01  2.6605787323329E-01  1.1129332540823E+00  2.5807245387212E-01
83  8.2000000000000E-01  2.0661335229259E-01  1.1601548573466E+00  2.3003737772409E-01
84  8.3000000000000E-01  1.4703841356809E-01  1.2074856827405E+00  2.0115135764671E-01
85  8.4000000000000E-01  8.7590326772654E-02  1.2545241740956E+00  1.7192317887041E-01
86  8.5000000000000E-01  2.8531134241067E-02  1.3008560620366E+00  1.4287899278001E-01
87  8.6000000000000E-01 -2.9874508744226E-02  1.3460585104708E+00  1.1455593474807E-01
88  8.7000000000000E-01 -8.7361533519354E-02  1.3897043864591E+00  8.7495534705153E-02
89  8.8000000000000E-01 -1.4366667370355E-01  1.4313666069382E+00  6.2236997096685E-02
90  8.9000000000000E-01 -1.9853067331839E-01  1.4706225153881E+00  3.9310428824026E-02
91  9.0000000000000E-01 -2.5170046417168E-01  1.5070582417154E+00  1.9230094867407E-02
92  9.1000000000000E-01 -3.0293129006656E-01  1.5402729993596E+00  2.4877815247852E-03
93  9.2000000000000E-01 -3.5198875641754E-01  1.5698832748689E+00 -1.0453653391011E-02
94  9.3000000000000E-01 -3.9865078512618E-01  1.5955268669151E+00 -1.9166465453676E-02
95  9.4000000000000E-01 -4.4270945605789E-01  1.6168667338603E+00 -2.3263867843105E-02
96  9.5000000000000E-01 -4.8397271813586E-01  1.6335946115040E+00 -2.2405461985562E-02
97  9.6000000000000E-01 -5.2226595489184E-01  1.6454343654684E+00 -1.6302185267729E-02
98  9.7000000000000E-01 -5.5743339124305E-01  1.6521450457479E+00 -4.7207106289293E-03
99  9.8000000000000E-01 -5.8933933026673E-01  1.6535236142036E+00  1.2512762445872E-02
100  9.9000000000000E-01 -6.1786921076655E-01  1.6494073191433E+00  3.5509380811947E-02
101  1.0000000000000E+00 -6.4293047843680E-01  1.6396756945348E+00  6.4315224051437E-02
102  1.0100000000000E+00 -6.6445326538228E-01  1.6242521647913E+00  9.8909647932328E-02
103  1.0200000000000E+00 -6.8239087461288E-01  1.6031052393857E+00  1.3920442208359E-01
104  1.0300000000000E+00 -6.9672006786261E-01  1.5762492847428E+00  1.8504369225438E-01
105  1.0400000000000E+00 -7.0744115666034E-01  1.5437448639034E+00  2.3620479038127E-01
106  1.0500000000000E+00 -7.1457789797451E-01  1.5056986373065E+00  2.9239990817626E-01
107  1.0600000000000E+00 -7.1817719695782E-01  1.4622628207090E+00  3.5327864199214E-01
108  1.0700000000000E+00 -7.1830862032055E-01  1.4136341987542E+00  4.1843140825229E-01
109  1.0800000000000E+00 -7.1506372466732E-01  1.3600526950460E+00  4.8739371965162E-01
110  1.0900000000000E+00 -7.0855520475992E-01  1.3017995018495E+00  5.5965130243996E-01
111  1.1000000000000E+00 -6.9891586714390E-01  1.2391947747835E+00  6.3464602427147E-01
112  1.1100000000000E+00 -6.8629743494248E-01  1.1725949002300E+00  7.1178259002809E-01
113  1.1200000000000E+00 -6.7086918993673E-01  1.1023893457812E+00  7.9043594947974E-01
114  1.1300000000000E+00 -6.5281645838865E-01  1.0289971070570E+00  8.6995934525168E-01
115  1.1400000000000E+00 -6.3233894751602E-01  9.5286276787256E-01  9.4969291195932E-01
116  1.1500000000000E+00 -6.0964894020530E-01  8.7445219524119E-01  1.0289727170958E+00
117  1.1600000000000E+00 -5.8496935658136E-01  7.9424789637481E-01  1.1071401108023E+00
118  1.1700000000000E+00 -5.5853169259308E-01  7.1274407199821E-01  1.1835512244402E+00
119  1.1800000000000E+00 -5.3057384798963E-01  6.3044140929389E-01  1.2575864263508E+00
120  1.1900000000000E+00 -5.0133785916806E-01  5.4784166910709E-01  1.3286595064293E+00
121  1.2000000000000E+00 -4.7106755654795E-01  4.6544213599797E-01  1.3962263188028E+00
122  1.2100000000000E+00 -4.4000617169915E-01  3.8373001708708E-01  1.4597925624368E+00
123  1.2200000000000E+00 -4.0839392657162E-01  3.0317689661921E-01  1.5189203229349E+00
124  1.2300000000000E+00 -3.7646564628691E-01  2.2423337877592E-01  1.5732329331160E+00
125  1.2400000000000E+00 -3.4444844829280E-01  1.4732408191712E-01  1.6224176347698E+00
126  1.2500000000000E+00 -3.1255957459531E-01  7.2843183819280E-02  1.6662254381799E+00
127  1.2600000000000E+00 -2.8100445084168E-01  1.1507608550287E-03  1.7044674773085E+00
128  1.2700000000000E+00 -2.4997507641512E-01 -6.7429785349726E-02  1.7370070470721E+00
129  1.2800000000000E+00 -2.1964887411306E-01 -1.3261286088155E-01  1.7637463809585E+00
130  1.2900000000000E+00 -1.9018815817129E-01 -1.9414994635072E-01  1.7846070561062E+00
131  1.3000000000000E+00 -1.6174039502050E-01 -2.5182654734435E-01  1.7995031682720E+00
132  1.3100000000000E+00 -1.3443947486375E-01 -3.0545627132923E-01  1.8083062291995E+00
133  1.3200000000000E+00 -1.0840570350803E-01 -3.5487906874804E-01  1.8108593310859E+00
134  1.3300000000000E+00 -8.3743394926632E-02 -3.9996751247442E-01  1.8070468938914E+00
135  1.3400000000000E+00 -6.0540205505720E-02 -4.4062858633134E-01  1.7968106378312E+00
136  1.3500000000000E+00 -3.8867202799515E-02 -4.7680348687273E-01  1.7801490418269E+00
137  1.3600000000000E+00 -1.8779077720298E-02 -5.0846713699115E-01  1.7571165616360E+00
138  1.3700000000000E+00 -3.1450511666320E-04 -5.3562738768144E-01  1.7278222811643E+00
139  1.3800000000000E+00  1.6503358563852E-02 -5.5832393096953E-01  1.6924280693062E+00
140  1.3900000000000E+00  3.1666251118913E-02 -5.7662694395847E-01  1.6511462657905E+00
141  1.4000000000000E+00  4.5180065775292E-02 -5.9063548678330E-01  1.6042369283766E+00
142  1.4100000000000E+00  5.7064010434743E-02 -6.0047567926535E-01  1.5520046775321E+00
143  1.4200000000000E+00  6.7349678405121E-02 -6.0629868270793E-01  1.4947951781591E+00
144  1.4300000000000E+00  7.6080044561414E-02 -6.0827851459590E-01  1.4329913010035E+00
145  1.4400000000000E+00  8.3308401180744E-02 -6.0660972482871E-01  1.3670090085149E+00
146  1.4500000000000E+00  8.9097247824354E-02 -6.0150496267309E-01  1.2972930118478E+00
147  1.4600000000000E+00  9.3517149581998E-02 -5.9319246381115E-01  1.2243122470175E+00
148  1.4700000000000E+00  9.6645577723339E-02 -5.8191348659592E-01  1.1485552186025E+00
149  1.4800000000000E+00  9.8565746430152E-02 -5.6791972622004E-01  1.0705252600496E+00
150  1.4900000000000E+00  9.9365458580245E-02 -5.5147073428418E-01  9.9073575786091E-01
151  1.5000000000000E+00  9.9135973246296E-02 -5.3283137124466E-01  9.0970539036334E-01
152  1.5100000000000E+00  9.7970905786296E-02 -5.1226931516827E-01  8.2795342065471E-01
153  1.5200000000000E+00  9.5965171687748E-02 -4.9005265202398E-01  7.4599509441831E-01
154  1.5300000000000E+00  9.3213983461607E-02 -4.6644756859532E-01  6.6433718275272E-01
155  1.5400000000000E+00  8.9811908553175E-02 -4.4171616647914E-01  5.8347370553193E-01
156  1.5500000000000E+00  8.5851995859733E-02 -4.1611441569263E-01  5.0388187636609E-01
157  1.5600000000000E+00  8.1424976479309E-02 -3.8989026203454E-01  4.2601829948033E-01
158  1.5700000000000E+00  7.6618543376742E-02 -3.6328190081213E-01  3.5031544865425E-01
159  1.5800000000000E+00  7.1516713324208E-02 -3.3651622689043E-01  2.7717845400986E-01
160  1.5900000000000E+00  6.6199273211213E-02 -3.0980746849485E-01  2.0698221846881E-01
161  1.6000000000000E+00  6.0741311607730E-02 -2.8335600975063E-01  1.4006888183284E-01
162  1.6100000000000E+00  5.5212835317734E-02 -2.5734740458914E-01  7.6745646621938E-02
163  1.6200000000000E+00  4.9678469519182E-02 -2.3195158223129E-01  1.7282975529316E-02
164  1.6300000000000E+00  4.4197239086508E-02 -2.0732224231843E-01 -3.8086833365786E-02
165  1.6400000000000E+00  3.8822427748770E-02 -1.8359643567605E-01 -8.9170691377899E-02
166  1.6500000000000E+00  3.3601510889256E-02 -1.6089432475994E-01 -1.3581538552430E-01
167  1.6600000000000E+00  2.8576157065727E-02 -1.3931911611400E-01 -1.7790787141167E-01
168  1.6700000000000E+00  2.3782292707002E-02 -1.1895715561305E-01 -2.1537520115302E-01
169  1.6800000000000E+00  1.9250223958454E-02 -9.9878175971195E-02 -2.4818409778590E-01
170  1.6900000000000E+00  1.5004809231753E-02 -8.2135684780525E-02 -2.7634019080089E-01
171  1.7000000000000E+00  1.1065675782956E-02 -6.5767480511973E-02 -2.9988692981335E-01
172  1.7100000000000E+00  7.4474734987036E-03 -5.0796283215309E-02 -3.1890419577600E-01
173  1.7200000000000E+00  4.1601590101739E-03 -3.7230466101810E-02 -3.3350663138396E-01
174  1.7300000000000E+00  1.2093033676118E-03 -2.5064874006807E-02 -3.4384171387686E-01
175  1.7400000000000E+00 -1.4035832802799E-03 -1.4281714729330E-02 -3.5008759475673E-01
176  1.7500000000000E+00 -3.6807165631131E-03 -4.8515086953510E-03 -3.5245073369400E-01
177  1.7600000000000E+00 -5.6276975721297E-03  3.2659150470880E-03 -3.5116334942144E-01
178  1.7700000000000E+00 -7.2531738623551E-03  1.0120392082928E-02 -3.4648072055000E-01
179  1.7800000000000E+00 -8.5685066368078E-03  1.5770377374721E-02 -3.3867836308898E-01
180  1.7900000000000E+00 -9.5874468883090E-03  2.0281889344589E-02 -3.2804910285417E-01
181  1.8000000000000E+00 -1.0325827239079E-02  2.3727461166542E-02 -3.1490008632723E-01
182  1.8100000000000E+00 -1.0801270401251E-02  2.6185103831788E-02 -2.9954974390499E-01
183  1.8200000000000E+00 -1.1032917984540E-02  2.7737292750403E-02 -2.8232473808459E-01
184  1.8300000000000E+00 -1.1041181381032E-02  2.8469985382539E-02 -2.6355692065817E-01
185  1.8400000000000E+00 -1.0847516134343E-02  2.8471677056698E-02 -2.4358032364545E-01
186  1.8500000000000E+00 -1.0474220611143E-02  2.7832501116336E-02 -2.2272820761962E-01
187  1.8600000000000E+00 -9.9442591771117E-03  2.6643378390207E-02 -2.0133018953727E-01
188  1.8700000000000E+00 -9.2810937878223E-03  2.4995192498365E-02 -1.7970943981858E-01
189  1.8800000000000E+00 -8.5086781287335E-03  2.2978264389397E-02 -1.5818027417290E-01
190  1.8900000000000E+00 -7.6509959253081E-03  2.0681052594783E-02 -1.3704494078714E-01
191  1.9000000000000E+00 -6.7323886628155E-03  1.8190248917836E-02 -1.1659206895363E-01
192  1.9100000000000E+00 -5.7845185996778E-03  1.5602502808023E-02 -9.7108405962986E-02
193  1.9200000000000E+00 -4.8509220572307E-03  1.3032008052975E-02 -7.8886011016715E-02
194  1.9300000000000E+00 -3.9491982743755E-03  1.0544094283865E-02 -6.2145688297963E-02
195  1.9400000000000E+00 -3.0947559528873E-03  8.1962601734617E-03 -4.7082223344514E-02
196  1.9500000000000E+00 -2.3050089996494E-03  6.0452024358700E-03 -3.3871311002274E-02
197  1.9600000000000E+00 -1.5984126934997E-03  4.1448957754734E-03 -2.2666513126694E-02
198  1.9700000000000E+00 -9.9476860078165E-04  2.5470271175826E-03 -1.3600429759923E-02
199  1.9800000000000E+00 -5.1438365958600E-04  1.2988370385163E-03 -6.7743261692960E-03
200  1.9900000000000E+00 -1.7873124687945E-04  4.4458554584192E-04 -2.2652496431659E-03
201  2.0000000000000E+00 -2.0861890928711E-05  5.0856312033583E-05 -2.5093032936859E-04
202  2.0100000000000E+00  6.4844646474202E-06 -1.5823519725243E-05  7.8614627223234E-05
203  2.0200000000000E+00 -1.9988677454940E-06  4.9163383744276E-06 -2.4669309775350E-05
204  2.03  0. -0.  0.
205  2.04  0. -0.  0.
206  2.05  0. -0.  0.
207  2.06  0.  0.  0.
208  2.07  0.  0.  0.
209  2.08  0.  0.  0.
210  2.09  0.  0.  0.
211  2.10  0.  0.  0.
212  2.11  0.  0.  0.
213  2.12  0.  0.  0.
214  2.13  0.  0.  0.
215  2.14  0.  0.  0.
216  2.15  0.  0.  0.
217  2.16  0.  0.  0.
218  2.17  0.  0.  0.
219  2.18  0.  0.  0.
220  2.19  0.  0.  0.
221  2.20  0.  0.  0.
222  2.21  0.  0.  0.
223  2.22  0.  0.  0.
224  2.23  0.  0.  0.
225  2.24  0.  0.  0.
226  2.25  0.  0.  0.
227  2.26  0.  0.  0.
228  2.27  0.  0.  0.
229  2.28  0.  0.  0.
230  2.29  0.  0.  0.
231  2.30  0.  0.  0.
232  2.31  0.  0.  0.
233  2.32  0.  0.  0.
234  2.33  0.  0.  0.
235  2.34  0.  0.  0.
236  2.35  0.  0.  0.
237  2.36  0.  0.  0.
238  2.37  0.  0.  0.
239  2.38  0.  0.  0.
240  2.39  0.  0.  0.
241  2.40  0.  0.  0.
242  2.41  0.  0.  0.
243  2.42  0.  0.  0.
244  2.43  0.  0.  0.
245  2.44  0.  0.  0.
246  2.45  0.  0.  0.
247  2.46  0.  0.  0.
248  2.47  0.  0.  0.
249  2.48  0.  0.  0.
250  2.49  0.  0.  0.
251  2.50  0.  0.  0.
252  2.51  0.  0.  0.
253  2.52  0.  0.  0.
254  2.53  0.  0.  0.
255  2.54  0.  0.  0.
256  2.55  0.  0.  0.
257  2.56  0.  0.  0.
258  2.57  0.  0.  0.
259  2.58  0.  0.  0.
260  2.59  0.  0.  0.
261  2.60  0.  0.  0.
262  2.61  0.  0.  0.
263  2.62  0.  0.  0.
264  2.63  0.  0.  0.
265  2.64  0.  0.  0.
266  2.65  0.  0.  0.
267  2.66  0.  0.  0.
268  2.67  0.  0.  0.
269  2.68  0.  0.  0.
270  2.69  0.  0.  0.
271  2.70  0.  0.  0.
272  2.71  0.  0.  0.
273  2.72  0.  0.  0.
274  2.73  0.  0.  0.
275  2.74  0.  0.  0.
276  2.75  0.  0.  0.
277  2.76  0.  0.  0.
278  2.77  0.  0.  0.
279  2.78  0.  0.  0.
280  2.79  0.  0.  0.
281  2.80  0.  0.  0.
282  2.81  0.  0.  0.
283  2.82  0.  0.  0.
284  2.83  0.  0.  0.
285  2.84  0.  0.  0.
286  2.85  0.  0.  0.
287  2.86  0.  0.  0.
288  2.87  0.  0.  0.
289  2.88  0.  0.  0.
290  2.89  0.  0.  0.
291  2.90  0.  0.  0.
292  2.91  0.  0.  0.
293  2.92  0.  0.  0.
294  2.93  0.  0.  0.
295  2.94  0.  0.  0.
296  2.95  0.  0.  0.
297  2.96  0.  0.  0.
298  2.97  0.  0.  0.
299  2.98  0.  0.  0.
300  2.99  0.  0.  0.
301  3.00  0.  0.  0.
302  3.01  0.  0.  0.
303  3.02  0.  0.  0.
304  3.03  0.  0.  0.
305  3.04  0.  0.  0.
306  3.05  0.  0.  0.
307  3.06  0.  0.  0.
308  3.07  0.  0.  0.
309  3.08  0.  0.  0.
310  3.09  0.  0.  0.
311  3.10  0.  0.  0.
312  3.11  0.  0.  0.
313  3.12  0.  0.  0.
314  3.13  0.  0.  0.
315  3.14  0.  0.  0.
316  3.15  0.  0.  0.
317  3.16  0.  0.  0.
318  3.17  0.  0.  0.
319  3.18  0.  0.  0.
320  3.19  0.  0.  0.
321  3.20  0.  0.  0.
322  3.21  0.  0.  0.
323  3.22  0.  0.  0.
324  3.23  0.  0.  0.
325  3.24  0.  0.  0.
326  3.25  0.  0.  0.
327  3.26  0.  0.  0.
328  3.27  0.  0.  0.
329  3.28  0.  0.  0.
330  3.29  0.  0.  0.
331  3.30  0.  0.  0.
332  3.31  0.  0.  0.
333  3.32  0.  0.  0.
334  3.33  0.  0.  0.
335  3.34  0.  0.  0.
336  3.35  0.  0.  0.
337  3.36  0.  0.  0.
338  3.37  0.  0.  0.
339  3.38  0.  0.  0.
340  3.39  0.  0.  0.
341  3.40  0.  0.  0.
342  3.41  0.  0.  0.
343  3.42  0.  0.  0.
344  3.43  0.  0.  0.
345  3.44  0.  0.  0.
346  3.45  0.  0.  0.
347  3.46  0.  0.  0.
348  3.47  0.  0.  0.
349  3.48  0.  0.  0.
350  3.49  0.  0.  0.
351  3.50  0.  0.  0.
352  3.51  0.  0.  0.
353  3.52  0.  0.  0.
354  3.53  0.  0.  0.
355  3.54  0.  0.  0.
356  3.55  0.  0.  0.
357  3.56  0.  0.  0.
358  3.57  0.  0.  0.
359  3.58  0.  0.  0.
360  3.59  0.  0.  0.
361  3.60  0.  0.  0.
362  3.61  0.  0.  0.
363  3.62  0.  0.  0.
364  3.63  0.  0.  0.
365  3.64  0.  0.  0.
366  3.65  0.  0.  0.
367  3.66  0.  0.  0.
368  3.67  0.  0.  0.
369  3.68  0.  0.  0.
370  3.69  0.  0.  0.
371  3.70  0.  0.  0.
372  3.71  0.  0.  0.
373  3.72  0.  0.  0.
374  3.73  0.  0.  0.
375  3.74  0.  0.  0.
376  3.75  0.  0.  0.
377  3.76  0.  0.  0.
378  3.77  0.  0.  0.
379  3.78  0.  0.  0.
380  3.79  0.  0.  0.
381  3.80  0.  0.  0.
382  3.81  0.  0.  0.
383  3.82  0.  0.  0.
384  3.83  0.  0.  0.
385  3.84  0.  0.  0.
386  3.85  0.  0.  0.
387  3.86  0.  0.  0.
388  3.87  0.  0.  0.
389  3.88  0.  0.  0.
390  3.89  0.  0.  0.
391  3.90  0.  0.  0.
392  3.91  0.  0.  0.
393  3.92  0.  0.  0.
394  3.93  0.  0.  0.
395  3.94  0.  0.  0.
396  3.95  0.  0.  0.
397  3.96  0.  0.  0.
398  3.97  0.  0.  0.
399  3.98  0.  0.  0.
400  3.99  0.  0.  0.
401  4.00  0.  0.  0.
402  4.01  0.  0.  0.
403  4.02  0.  0.  0.
404  4.03  0.  0.  0.
405  4.04  0.  0.  0.
406  4.05  0.  0.  0.
407  4.06  0.  0.  0.
408  4.07  0.  0.  0.
409  4.08  0.  0.  0.
410  4.09  0.  0.  0.
411  4.10  0.  0.  0.
412  4.11  0.  0.  0.
413  4.12  0.  0.  0.
414  4.13  0.  0.  0.
415  4.14  0.  0.  0.
416  4.15  0.  0.  0.
417  4.16  0.  0.  0.
418  4.17  0.  0.  0.
419  4.18  0.  0.  0.
420  4.19  0.  0.  0.
421  4.20  0.  0.  0.
422  4.21  0.  0.  0.
423  4.22  0.  0.  0.
424  4.23  0.  0.  0.
425  4.24  0.  0.  0.
426  4.25  0.  0.  0.
427  4.26  0.  0.  0.
428  4.27  0.  0.  0.
429  4.28  0.  0.  0.
430  4.29  0.  0.  0.
431  4.30  0.  0.  0.
432  4.31  0.  0.  0.
433  4.32  0.  0.  0.
434  4.33  0.  0.  0.
435  4.34  0.  0.  0.
436  4.35  0.  0.  0.
437  4.36  0.  0.  0.
438  4.37  0.  0.  0.
439  4.38  0.  0.  0.
440  4.39  0.  0.  0.
441  4.40  0.  0.  0.
442  4.41  0.  0.  0.
443  4.42  0.  0.  0.
444  4.43  0.  0.  0.
445  4.44  0.  0.  0.
446  4.45  0.  0.  0.
447  4.46  0.  0.  0.
448  4.47  0.  0.  0.
449  4.48  0.  0.  0.
450  4.49  0.  0.  0.
451  4.50  0.  0.  0.
452  4.51  0.  0.  0.
453  4.52  0.  0.  0.
454  4.53  0.  0.  0.
455  4.54  0.  0.  0.
456  4.55  0.  0.  0.
457  4.56  0.  0.  0.
458  4.57  0.  0.  0.
459  4.58  0.  0.  0.
460  4.59  0.  0.  0.
461  4.60  0.  0.  0.
462  4.61  0.  0.  0.
463  4.62  0.  0.  0.
464  4.63  0.  0.  0.
465  4.64  0.  0.  0.
466  4.65  0.  0.  0.
467  4.66  0.  0.  0.
468  4.67  0.  0.  0.
469  4.68  0.  0.  0.
470  4.69  0.  0.  0.
471  4.70  0.  0.  0.
472  4.71  0.  0.  0.
473  4.72  0.  0.  0.
474  4.73  0.  0.  0.
475  4.74  0.  0.  0.
476  4.75  0.  0.  0.
477  4.76  0.  0.  0.
478  4.77  0.  0.  0.
479  4.78  0.  0.  0.
480  4.79  0.  0.  0.
481  4.80  0.  0.  0.
482  4.81  0.  0.  0.
483  4.82  0.  0.  0.
484  4.83  0.  0.  0.
485  4.84  0.  0.  0.
486  4.85  0.  0.  0.
487  4.86  0.  0.  0.
488  4.87  0.  0.  0.
489  4.88  0.  0.  0.
490  4.89  0.  0.  0.
491  4.90  0.  0.  0.
492  4.91  0.  0.  0.
493  4.92  0.  0.  0.
494  4.93  0.  0.  0.
495  4.94  0.  0.  0.
496  4.95  0.  0.  0.
497  4.96  0.  0.  0.
498  4.97  0.  0.  0.
499  4.98  0.  0.  0.
500  4.99  0.  0.  0.
501  5.00  0.  0.  0.
502  5.01  0.  0.  0.
503  5.02  0.  0.  0.
504  5.03  0.  0.  0.
505  5.04  0.  0.  0.
506  5.05  0.  0.  0.
507  5.06  0.  0.  0.
508  5.07  0.  0.  0.
509  5.08  0.  0.  0.
510  5.09  0.  0.  0.
511  5.10  0.  0.  0.
512  5.11  0.  0.  0.
513  5.12  0.  0.  0.
514  5.13  0.  0.  0.
515  5.14  0.  0.  0.
516  5.15  0.  0.  0.
517  5.16  0.  0.  0.
518  5.17  0.  0.  0.
519  5.18  0.  0.  0.
520  5.19  0.  0.  0.
521  5.20  0.  0.  0.
522  5.21  0.  0.  0.
523  5.22  0.  0.  0.
524  5.23  0.  0.  0.
525  5.24  0.  0.  0.
526  5.25  0.  0.  0.
527  5.26  0.  0.  0.
528  5.27  0.  0.  0.
529  5.28  0.  0.  0.
530  5.29  0.  0.  0.
531  5.30  0.  0.  0.
532  5.31  0.  0.  0.
533  5.32  0.  0.  0.
534  5.33  0.  0.  0.
535  5.34  0.  0.  0.
536  5.35  0.  0.  0.
537  5.36  0.  0.  0.
538  5.37  0.  0.  0.
539  5.38  0.  0.  0.
540  5.39  0.  0.  0.
541  5.40  0.  0.  0.
542  5.41  0.  0.  0.
543  5.42  0.  0.  0.
544  5.43  0.  0.  0.
545  5.44  0.  0.  0.
546  5.45  0.  0.  0.
547  5.46  0.  0.  0.
548  5.47  0.  0.  0.
549  5.48  0.  0.  0.
550  5.49  0.  0.  0.
551  5.50  0.  0.  0.
552  5.51  0.  0.  0.
553  5.52  0.  0.  0.
554  5.53  0.  0.  0.
555  5.54  0.  0.  0.
556  5.55  0.  0.  0.
557  5.56  0.  0.  0.
558  5.57  0.  0.  0.
559  5.58  0.  0.  0.
560  5.59  0.  0.  0.
561  5.60  0.  0.  0.
562  5.61  0.  0.  0.
563  5.62  0.  0.  0.
564  5.63  0.  0.  0.
565  5.64  0.  0.  0.
566  5.65  0.  0.  0.
567  5.66  0.  0.  0.
568  5.67  0.  0.  0.
569  5.68  0.  0.  0.
570  5.69  0.  0.  0.
571  5.70  0.  0.  0.
572  5.71  0.  0.  0.
573  5.72  0.  0.  0.
574  5.73  0.  0.  0.
575  5.74  0.  0.  0.
576  5.75  0.  0.  0.
577  5.76  0.  0.  0.
578  5.77  0.  0.  0.
579  5.78  0.  0.  0.
580  5.79  0.  0.  0.
581  5.80  0.  0.  0.
582  5.81  0.  0.  0.
583  5.82  0.  0.  0.
584  5.83  0.  0.  0.
585  5.84  0.  0.  0.
586  5.85  0.  0.  0.
587  5.86  0.  0.  0.
588  5.87  0.  0.  0.
589  5.88  0.  0.  0.
590  5.89  0.  0.  0.
591  5.90  0.  0.  0.
592  5.91  0.  0.  0.
593  5.92  0.  0.  0.
594  5.93  0.  0.  0.
595  5.94  0.  0.  0.
596  5.95  0.  0.  0.
597  5.96  0.  0.  0.
598  5.97  0.  0.  0.
599  5.98  0.  0.  0.
600  5.99  0.  0.  0.
1                         7.2596056680382E+00  8.6712251336752E-01
1  0.0000000000000E+00 -2.0396516420274E-10 -2.5794980734739E-10
2  1.0000000000000E-02  1.1664496989665E-03 -7.4363397790469E-04
3  2.0000000000000E-02  4.6622788642159E-03 -2.9686828600214E-03
4  3.0000000000000E-02  1.0476933976812E-02 -6.6576275346810E-03
5  4.0000000000000E-02  1.8592846895558E-02 -1.1781402886373E-02
6  5.0000000000000E-02  2.8985466917572E-02 -1.8299597638596E-02
7  6.0000000000000E-02  4.1623306597039E-02 -2.6160733581741E-02
8  7.0000000000000E-02  5.6468002218776E-02 -3.5302623573939E-02
9  8.0000000000000E-02  7.3474390027249E-02 -4.5652807444864E-02
10  9.0000000000000E-02  9.2590599478149E-02 -5.7129064616146E-02
11  1.0000000000000E-01  1.1375816490211E-01 -6.9640001868554E-02
12  1.1000000000000E-01  1.3691215704330E-01 -8.3085714229728E-02
13  1.2000000000000E-01  1.6198133595521E-01 -9.7358516423325E-02
14  1.3000000000000E-01  1.8888832669866E-01 -1.1234374171004E-01
15  1.4000000000000E-01  2.1754981919205E-01 -1.2792060426714E-01
16  1.5000000000000E-01  2.4787679341037E-01 -1.4396312049975E-01
17  1.6000000000000E-01  2.7977477091880E-01 -1.6034108386546E-01
18  1.7000000000000E-01  3.1314409346263E-01 -1.7692108693434E-01
19  1.8000000000000E-01  3.4788022902025E-01 -1.9356758351484E-01
20  1.9000000000000E-01  3.8387410536754E-01 -2.1014398277112E-01
21  2.0000000000000E-01  4.2101247080513E-01 -2.2651376635700E-01
22  2.1000000000000E-01  4.5917828127419E-01 -2.4254161872063E-01
23  2.2000000000000E-01  4.9825111263934E-01 -2.5809455991394E-01
24  2.3000000000000E-01  5.3810759645913E-01 -2.7304306949658E-01
25  2.4000000000000E-01  5.7862187710559E-01 -2.8726218948166E-01
26  2.5000000000000E-01  6.1966608764509E-01 -3.0063259375290E-01
27  2.6000000000000E-01  6.6111084146353E-01 -3.1304161101475E-01
28  2.7000000000000E-01  7.0282573622111E-01 -3.2438418814092E-01
29  2.8000000000000E-01  7.4467986636527E-01 -3.3456378078192E-01
30  2.9000000000000E-01  7.8654234012456E-01 -3.4349315829693E-01
31  3.0000000000000E-01  8.2828279666067E-01 -3.5109511050305E-01
32  3.1000000000000E-01  8.6977191887775E-01 -3.5730304439678E-01
33  3.2000000000000E-01  9.1088193728468E-01 -3.6206145990309E-01
34  3.3000000000000E-01  9.5148712028215E-01 -3.6532629484968E-01
35  3.4000000000000E-01  9.9146424630605E-01 -3.6706513074293E-01
36  3.5000000000000E-01  1.0306930534036E+00 -3.6725725252902E-01
37  3.6000000000000E-01  1.0690566620493E+00 -3.6589355734573E-01
38  3.7000000000000E-01  1.1064419673227E+00 -3.6297630928574E-01
39  3.8000000000000E-01  1.1427399969646E+00 -3.5851873937893E-01
40  3.9000000000000E-01  1.1778462323005E+00 -3.5254449232736E-01
41  4.0000000000000E-01  1.2116608895559E+00 -3.4508692395995E-01
42  4.1000000000000E-01  1.2440891596914E+00 -3.3618825587463E-01
43  4.2000000000000E-01  1.2750414055263E+00 -3.2589859626374E-01
44  4.3000000000000E-01  1.3044333156128E+00 -3.1427483842752E-01
45  4.4000000000000E-01  1.3321860150249E+00 -3.0137945092544E-01
46  4.5000000000000E-01  1.3582261339532E+00 -2.8727917564699E-01