Yb    ONCVPSP-4.0.1  r_core=   1.80997   1.50361   1.65463   1.60588
70.0000     24.0000      221106    zatom,zion,pspd
8      11   3     4   600     0    pspcod,pspxc,lmax,lloc,mmax,r2well
5.99000000  0.25000000  0.00000000    rchrg fchrg qchrg
2     2     2     2     0    nproj
1     1           extension_switch
0                         9.0483883867366E+00  8.5777831884022E-01
1  0.0000000000000E+00  4.6315068447100E-10 -1.5451949312087E-09
2  1.0000000000000E-02  5.0832194888757E-02  1.6040591302398E-03
3  2.0000000000000E-02  1.0163746314714E-01  3.1061888078939E-03
4  3.0000000000000E-02  1.5238830206183E-01  4.4065023889043E-03
5  4.0000000000000E-02  2.0305606586267E-01  5.4091690926528E-03
6  5.0000000000000E-02  2.5361041684756E-01  6.0243679485491E-03
7  6.0000000000000E-02  3.0401880335816E-01  6.1701540723306E-03
8  7.0000000000000E-02  3.5424597300603E-01  5.7742098864752E-03
9  8.0000000000000E-02  4.0425352908582E-01  4.7754554443219E-03
10  9.0000000000000E-02  4.5399953754399E-01  3.1254939113216E-03
11  1.0000000000000E-01  5.0343819120607E-01  7.8987047564998E-04
12  1.1000000000000E-01  5.5251953721071E-01 -2.2508745248224E-03
13  1.2000000000000E-01  6.0118927276374E-01 -6.0003746933009E-03
14  1.3000000000000E-01  6.4938861342156E-01 -1.0445842309614E-02
15  1.4000000000000E-01  6.9705423715131E-01 -1.5557718940948E-02
16  1.5000000000000E-01  7.4411830640731E-01 -2.1289578813368E-02
17  1.6000000000000E-01  7.9050856942261E-01 -2.7578288379857E-02
18  1.7000000000000E-01  8.3614854085390E-01 -3.4344422010580E-02
19  1.8000000000000E-01  8.8095776085102E-01 -4.1492930206575E-02
20  1.9000000000000E-01  9.2485213056286E-01 -4.8914053245217E-02
21  2.0000000000000E-01  9.6774432105256E-01 -5.6484469750198E-02
22  2.1000000000000E-01  1.0095442515902E+00 -6.4068666385956E-02
23  2.2000000000000E-01  1.0501596323340E+00 -7.1520511749555E-02
24  2.3000000000000E-01  1.0894965655135E+00 -7.8685014614638E-02
25  2.4000000000000E-01  1.1274601984003E+00 -8.5400244010510E-02
26  2.5000000000000E-01  1.1639554206097E+00 -9.1499386231869E-02
27  2.6000000000000E-01  1.1988875976233E+00 -9.6812911804102E-02
28  2.7000000000000E-01  1.2321633318702E+00 -1.0117082370361E-01
29  2.8000000000000E-01  1.2636912422637E+00 -1.0440495677848E-01
30  2.9000000000000E-01  1.2933827527598E+00 -1.0635129735086E-01
31  3.0000000000000E-01  1.3211528802965E+00 -1.0685229142440E-01
32  3.1000000000000E-01  1.3469210123856E+00 -1.0575910977955E-01
33  3.2000000000000E-01  1.3706116646662E+00 -1.0293383851748E-01
34  3.3000000000000E-01  1.3921552088930E+00 -9.8251564314693E-02
35  3.4000000000000E-01  1.4114885621181E+00 -9.1602324764219E-02
36  3.5000000000000E-01  1.4285558282293E+00 -8.2892895696733E-02
37  3.6000000000000E-01  1.4433088835326E+00 -7.2048389279415E-02
38  3.7000000000000E-01  1.4557078986950E+00 -5.9013638957978E-02
39  3.8000000000000E-01  1.4657217900999E+00 -4.3754349914482E-02
40  3.9000000000000E-01  1.4733285944915E+00 -2.6257996625466E-02
41  4.0000000000000E-01  1.4785157616979E+00 -6.5344522883558E-03
42  4.1000000000000E-01  1.4812803612028E+00  1.5383661700213E-02
43  4.2000000000000E-01  1.4816291993779E+00  3.9440914428853E-02
44  4.3000000000000E-01  1.4795788452778E+00  6.5559296785639E-02
45  4.4000000000000E-01  1.4751555640206E+00  9.3638746029082E-02
46  4.5000000000000E-01  1.4683951579188E+00  1.2355796035637E-01
47  4.6000000000000E-01  1.4593427166675E+00  1.5517549632788E-01
48  4.7000000000000E-01  1.4480522790343E+00  1.8833113818355E-01
49  4.8000000000000E-01  1.4345864096013E+00  2.2284752436882E-01
50  4.9000000000000E-01  1.4190156951786E+00  2.5853201302850E-01
51  5.0000000000000E-01  1.4014181665261E+00  2.9517876487286E-01
52  5.1000000000000E-01  1.3818786519620E+00  3.3257101871717E-01
53  5.2000000000000E-01  1.3604880703106E+00  3.7048353218991E-01
54  5.3000000000000E-01  1.3373426714095E+00  4.0868515763047E-01
55  5.4000000000000E-01  1.3125432330744E+00  4.4694152109710E-01
56  5.5000000000000E-01  1.2861942239775E+00  4.8501777070393E-01
57  5.6000000000000E-01  1.2584029423361E+00  5.2268135923550E-01
58  5.7000000000000E-01  1.2292786406235E+00  5.5970482516216E-01
59  5.8000000000000E-01  1.1989316466969E+00  5.9586853582187E-01
60  5.9000000000000E-01  1.1674724917862E+00  6.3096335664666E-01
61  6.0000000000000E-01  1.1350110557027E+00  6.6479321090115E-01
62  6.1000000000000E-01  1.1016557394047E+00  6.9717749546281E-01
63  6.2000000000000E-01  1.0675126747035E+00  7.2795331969678E-01
64  6.3000000000000E-01  1.0326849804142E+00  7.5697753644919E-01
65  6.4000000000000E-01  9.9727207364706E-01  7.8412853657618E-01
66  6.5000000000000E-01  9.6136904422092E-01  8.0930778121752E-01
67  6.6000000000000E-01  9.2506609935099E-01  8.3244104917493E-01
68  6.7000000000000E-01  8.8844808484673E-01  8.5347938023138E-01
69  6.8000000000000E-01  8.5159408805018E-01  8.7239969900378E-01
70  6.9000000000000E-01  8.1457712667308E-01  8.8920510790799E-01
71  7.0000000000000E-01  7.7746392656258E-01  9.0392484198376E-01
72  7.1000000000000E-01  7.4031479025568E-01  9.1661388262207E-01
73  7.2000000000000E-01  7.0318355698914E-01  9.2735223160188E-01
74  7.3000000000000E-01  6.6611765362835E-01  9.3624385122154E-01
75  7.4000000000000E-01  6.2915823478392E-01  9.4341528064238E-01
76  7.5000000000000E-01  5.9234040921329E-01  9.4901394279015E-01
77  7.6000000000000E-01  5.5569354847329E-01  9.5320616022937E-01
78  7.7000000000000E-01  5.1924167271324E-01  9.5617490227892E-01
79  7.8000000000000E-01  4.8300390749252E-01  9.5811728922200E-01
80  7.9000000000000E-01  4.4699500458342E-01  9.5924188273491E-01
81  8.0000000000000E-01  4.1122591889495E-01  9.5976579456598E-01
82  8.1000000000000E-01  3.7570443293403E-01  9.5991164800570E-01
83  8.2000000000000E-01  3.4043581962006E-01  9.5990442876136E-01
84  8.3000000000000E-01  3.0542353379202E-01  9.5996826346139E-01
85  8.4000000000000E-01  2.7066992240359E-01  9.6032316513938E-01
86  8.5000000000000E-01  2.3617694319176E-01  9.6118178567633E-01
87  8.6000000000000E-01  2.0194688153365E-01  9.6274621529881E-01
88  8.7000000000000E-01  1.6798305527258E-01  9.6520486884431E-01
89  8.8000000000000E-01  1.3429049749684E-01  9.6872949761847E-01
90  8.9000000000000E-01  1.0087660758922E-01  9.7347236429565E-01
91  9.0000000000000E-01  6.7751761325471E-02  9.7956361647772E-01
92  9.1000000000000E-01  3.4929871378907E-02  9.8710889225222E-01
93  9.2000000000000E-01  2.4288902748044E-03  9.9618718841617E-01
94  9.3000000000000E-01 -2.9728751377111E-02  1.0068490189945E+00
95  9.4000000000000E-01 -6.1515777675631E-02  1.0191148883299E+00
96  9.5000000000000E-01 -9.2899776610886E-02  1.0329740994016E+00
97  9.6000000000000E-01 -1.2384299000716E-01  1.0483839141991E+00
98  9.7000000000000E-01 -1.5430218756215E-01  1.0652690789891E+00
99  9.8000000000000E-01 -1.8422862726153E-01  1.0835217232277E+00
100  9.9000000000000E-01 -2.1356810338455E-01  1.1030016367478E+00
101  1.0000000000000E+00 -2.4226108226103E-01  1.1235369257420E+00
102  1.0100000000000E+00 -2.7024292491202E-01  1.1449250440366E+00
103  1.0200000000000E+00 -2.9744419471856E-01  1.1669341922580E+00
104  1.0300000000000E+00 -3.2379104733028E-01  1.1893050737774E+00
105  1.0400000000000E+00 -3.4920569916143E-01  1.2117529928448E+00
106  1.0500000000000E+00 -3.7360697003838E-01  1.2339702771149E+00
107  1.0600000000000E+00 -3.9691089486775E-01  1.2556290038772E+00
108  1.0700000000000E+00 -4.1903139859792E-01  1.2763840067410E+00
109  1.0800000000000E+00 -4.3988102825327E-01  1.2958761373395E+00
110  1.0900000000000E+00 -4.5937173543305E-01  1.3137357547916E+00
111  1.1000000000000E+00 -4.7741570238708E-01  1.3295864142238E+00
112  1.1100000000000E+00 -4.9392620460531E-01  1.3430487245878E+00
113  1.1200000000000E+00 -5.0881850278426E-01  1.3537443453031E+00
114  1.1300000000000E+00 -5.2201075705222E-01  1.3613000908895E+00
115  1.1400000000000E+00 -5.3342495643752E-01  1.3653521126915E+00
116  1.1500000000000E+00 -5.4298785673689E-01  1.3655501269949E+00
117  1.1600000000000E+00 -5.5063192016972E-01  1.3615616592538E+00
118  1.1700000000000E+00 -5.5629625046975E-01  1.3530762747079E+00
119  1.1800000000000E+00 -5.5992751734982E-01  1.3398097663223E+00
120  1.1900000000000E+00 -5.6148086455492E-01  1.3215082716428E+00
121  1.2000000000000E+00 -5.6092079596937E-01  1.2979522907463E+00
122  1.2100000000000E+00 -5.5822203444144E-01  1.2689605778954E+00
123  1.2200000000000E+00 -5.5337034810281E-01  1.2343938796761E+00
124  1.2300000000000E+00 -5.4636333896616E-01  1.1941584922215E+00
125  1.2400000000000E+00 -5.3721118844701E-01  1.1482096094805E+00
126  1.2500000000000E+00 -5.2593735415253E-01  1.0965544333067E+00
127  1.2600000000000E+00 -5.1257921176866E-01  1.0392550142597E+00
128  1.2700000000000E+00 -4.9718863513711E-01  9.7643078937593E-01
129  1.2800000000000E+00 -4.7983250660733E-01  9.0826077963122E-01
130  1.2900000000000E+00 -4.6059314843935E-01  8.3498540526379E-01
131  1.3000000000000E+00 -4.3956866440003E-01  7.5690787147881E-01
132  1.3100000000000E+00 -4.1687317870125E-01  6.7439507018403E-01
133  1.3200000000000E+00 -3.9263695702956E-01  5.8787793515639E-01
134  1.3300000000000E+00 -3.6700639159935E-01  4.9785117836166E-01
135  1.3400000000000E+00 -3.4014382889751E-01  4.0487232394579E-01
136  1.3500000000000E+00 -3.1222721500590E-01  3.0955994343458E-01
137  1.3600000000000E+00 -2.8344952911326E-01  2.1259098100268E-01
138  1.3700000000000E+00 -2.5401797097500E-01  1.1469704100394E-01
139  1.3800000000000E+00 -2.2415286268409E-01  1.6659491408428E-02
140  1.3900000000000E+00 -1.9408621903933E-01 -8.0696784109035E-02
141  1.4000000000000E+00 -1.6405993413211E-01 -1.7651117563510E-01
142  1.4100000000000E+00 -1.3432352438760E-01 -2.6989689369513E-01
143  1.4200000000000E+00 -1.0513136020923E-01 -3.5995251669866E-01
144  1.4300000000000E+00 -7.6739309549035E-02 -4.4577581319364E-01
145  1.4400000000000E+00 -4.9400707067111E-02 -5.2648014636775E-01
146  1.4500000000000E+00 -2.3361552120281E-02 -6.0121380431462E-01
147  1.4600000000000E+00  1.1451725001335E-03 -6.6918263881189E-01
148  1.4700000000000E+00  2.3906181384154E-02 -7.2967643776157E-01
149  1.4800000000000E+00  4.4735703742898E-02 -7.8209951622133E-01
150  1.4900000000000E+00  6.3484588184073E-02 -8.2600605946601E-01
151  1.5000000000000E+00  8.0050628130026E-02 -8.6113985117003E-01
152  1.5100000000000E+00  9.4391148062419E-02 -8.8748254766928E-01
153  1.5200000000000E+00  1.0651748054522E-01 -9.0522669143091E-01
154  1.5300000000000E+00  1.1646729582336E-01 -9.1465911234827E-01
155  1.5400000000000E+00  1.2429479756535E-01 -9.1612026678573E-01
156  1.5500000000000E+00  1.3007070311443E-01 -9.1000441355979E-01
157  1.5600000000000E+00  1.3388133866930E-01 -8.9675622567173E-01
158  1.5700000000000E+00  1.3582771090141E-01 -8.7686742056339E-01
159  1.5800000000000E+00  1.3602441823541E-01 -8.5087283137310E-01
160  1.5900000000000E+00  1.3459841700257E-01 -8.1934597619107E-01
161  1.6000000000000E+00  1.3168765559759E-01 -7.8289417200264E-01
162  1.6100000000000E+00  1.2743959018846E-01 -7.4215324072384E-01
163  1.6200000000000E+00  1.2200959707819E-01 -6.9778186021619E-01
164  1.6300000000000E+00  1.1555929800937E-01 -6.5045561729769E-01
165  1.6400000000000E+00  1.0825481580605E-01 -6.0086082363698E-01
166  1.6500000000000E+00  1.0026497867539E-01 -5.4968815867767E-01
167  1.6600000000000E+00  9.1759492167496E-02 -4.9762620609617E-01
168  1.6700000000000E+00  8.2907098280659E-02 -4.4535495200808E-01
169  1.6800000000000E+00  7.3873741428256E-02 -3.9353931392773E-01
170  1.6900000000000E+00  6.4820766060409E-02 -3.4282278516415E-01
171  1.7000000000000E+00  5.5903113803426E-02 -2.9382110475177E-01
172  1.7100000000000E+00  4.7267763056064E-02 -2.4711670045365E-01
173  1.7200000000000E+00  3.9051677914031E-02 -2.0325170436596E-01
174  1.7300000000000E+00  3.1375173914063E-02 -1.6270674257077E-01
175  1.7400000000000E+00  2.4348486097549E-02 -1.2592039022161E-01
176  1.7500000000000E+00  1.8075634473362E-02 -9.3300830491719E-02
177  1.7600000000000E+00  1.2644414145560E-02 -6.5194837138804E-02
178  1.7700000000000E+00  8.1262923496207E-03 -4.1886955222585E-02
179  1.7800000000000E+00  4.5762632334087E-03 -2.3600306821101E-02
180  1.7900000000000E+00  2.0253693457319E-03 -1.0458647039932E-02
181  1.8000000000000E+00  5.0788839715488E-04 -2.6282618948033E-03
182  1.8100000000000E+00 -4.3328892472887E-07  2.2728103833629E-06
183  1.8200000000000E+00 -4.6037122096845E-06  2.3909394916694E-05
184  1.83  0. -0.
185  1.84 -0.  0.
186  1.85 -0. -0.
187  1.86  0.  0.
188  1.87  0.  0.
189  1.88  0.  0.
190  1.89  0.  0.
191  1.90  0.  0.
192  1.91  0.  0.
193  1.92  0.  0.
194  1.93  0.  0.
195  1.94  0.  0.
196  1.95  0.  0.
197  1.96  0.  0.
198  1.97  0.  0.
199  1.98  0.  0.
200  1.99  0.  0.
201  2.00  0.  0.
202  2.01  0.  0.
203  2.02  0.  0.
204  2.03  0.  0.
205  2.04  0.  0.
206  2.05  0.  0.
207  2.06  0.  0.
208  2.07  0.  0.
209  2.08  0.  0.
210  2.09  0.  0.
211  2.10  0.  0.
212  2.11  0.  0.
213  2.12  0.  0.
214  2.13  0.  0.
215  2.14  0.  0.
216  2.15  0.  0.
217  2.16  0.  0.
218  2.17  0.  0.
219  2.18  0.  0.
220  2.19  0.  0.
221  2.20  0.  0.
222  2.21  0.  0.
223  2.22  0.  0.
224  2.23  0.  0.
225  2.24  0.  0.
226  2.25  0.  0.
227  2.26  0.  0.
228  2.27  0.  0.
229  2.28  0.  0.
230  2.29  0.  0.
231  2.30  0.  0.
232  2.31  0.  0.
233  2.32  0.  0.
234  2.33  0.  0.
235  2.34  0.  0.
236  2.35  0.  0.
237  2.36  0.  0.
238  2.37  0.  0.
239  2.38  0.  0.
240  2.39  0.  0.
241  2.40  0.  0.
242  2.41  0.  0.
243  2.42  0.  0.
244  2.43  0.  0.
245  2.44  0.  0.
246  2.45  0.  0.
247  2.46  0.  0.
248  2.47  0.  0.
249  2.48  0.  0.
250  2.49  0.  0.
251  2.50  0.  0.
252  2.51  0.  0.
253  2.52  0.  0.
254  2.53  0.  0.
255  2.54  0.  0.
256  2.55  0.  0.
257  2.56  0.  0.
258  2.57  0.  0.
259  2.58  0.  0.
260  2.59  0.  0.
261  2.60  0.  0.
262  2.61  0.  0.
263  2.62  0.  0.
264  2.63  0.  0.
265  2.64  0.  0.
266  2.65  0.  0.
267  2.66  0.  0.
268  2.67  0.  0.
269  2.68  0.  0.
270  2.69  0.  0.
271  2.70  0.  0.
272  2.71  0.  0.
273  2.72  0.  0.
274  2.73  0.  0.
275  2.74  0.  0.
276  2.75  0.  0.
277  2.76  0.  0.
278  2.77  0.  0.
279  2.78  0.  0.
280  2.79  0.  0.
281  2.80  0.  0.
282  2.81  0.  0.
283  2.82  0.  0.
284  2.83  0.  0.
285  2.84  0.  0.
286  2.85  0.  0.
287  2.86  0.  0.
288  2.87  0.  0.
289  2.88  0.  0.
290  2.89  0.  0.
291  2.90  0.  0.
292  2.91  0.  0.
293  2.92  0.  0.
294  2.93  0.  0.
295  2.94  0.  0.
296  2.95  0.  0.
297  2.96  0.  0.
298  2.97  0.  0.
299  2.98  0.  0.
300  2.99  0.  0.
301  3.00  0.  0.
302  3.01  0.  0.
303  3.02  0.  0.
304  3.03  0.  0.
305  3.04  0.  0.
306  3.05  0.  0.
307  3.06  0.  0.
308  3.07  0.  0.
309  3.08  0.  0.
310  3.09  0.  0.
311  3.10  0.  0.
312  3.11  0.  0.
313  3.12  0.  0.
314  3.13  0.  0.
315  3.14  0.  0.
316  3.15  0.  0.
317  3.16  0.  0.
318  3.17  0.  0.
319  3.18  0.  0.
320  3.19  0.  0.
321  3.20  0.  0.
322  3.21  0.  0.
323  3.22  0.  0.
324  3.23  0.  0.
325  3.24  0.  0.
326  3.25  0.  0.
327  3.26  0.  0.
328  3.27  0.  0.
329  3.28  0.  0.
330  3.29  0.  0.
331  3.30  0.  0.
332  3.31  0.  0.
333  3.32  0.  0.
334  3.33  0.  0.
335  3.34  0.  0.
336  3.35  0.  0.
337  3.36  0.  0.
338  3.37  0.  0.
339  3.38  0.  0.
340  3.39  0.  0.
341  3.40  0.  0.
342  3.41  0.  0.
343  3.42  0.  0.
344  3.43  0.  0.
345  3.44  0.  0.
346  3.45  0.  0.
347  3.46  0.  0.
348  3.47  0.  0.
349  3.48  0.  0.
350  3.49  0.  0.
351  3.50  0.  0.
352  3.51  0.  0.
353  3.52  0.  0.
354  3.53  0.  0.
355  3.54  0.  0.
356  3.55  0.  0.
357  3.56  0.  0.
358  3.57  0.  0.
359  3.58  0.  0.
360  3.59  0.  0.
361  3.60  0.  0.
362  3.61  0.  0.
363  3.62  0.  0.
364  3.63  0.  0.
365  3.64  0.  0.
366  3.65  0.  0.
367  3.66  0.  0.
368  3.67  0.  0.
369  3.68  0.  0.
370  3.69  0.  0.
371  3.70  0.  0.
372  3.71  0.  0.
373  3.72  0.  0.
374  3.73  0.  0.
375  3.74  0.  0.
376  3.75  0.  0.
377  3.76  0.  0.
378  3.77  0.  0.
379  3.78  0.  0.
380  3.79  0.  0.
381  3.80  0.  0.
382  3.81  0.  0.
383  3.82  0.  0.
384  3.83  0.  0.
385  3.84  0.  0.
386  3.85  0.  0.
387  3.86  0.  0.
388  3.87  0.  0.
389  3.88  0.  0.
390  3.89  0.  0.
391  3.90  0.  0.
392  3.91  0.  0.
393  3.92  0.  0.
394  3.93  0.  0.
395  3.94  0.  0.
396  3.95  0.  0.
397  3.96  0.  0.
398  3.97  0.  0.
399  3.98  0.  0.
400  3.99  0.  0.
401  4.00  0.  0.
402  4.01  0.  0.
403  4.02  0.  0.
404  4.03  0.  0.
405  4.04  0.  0.
406  4.05  0.  0.
407  4.06  0.  0.
408  4.07  0.  0.
409  4.08  0.  0.
410  4.09  0.  0.
411  4.10  0.  0.
412  4.11  0.  0.
413  4.12  0.  0.
414  4.13  0.  0.
415  4.14  0.  0.
416  4.15  0.  0.
417  4.16  0.  0.
418  4.17  0.  0.
419  4.18  0.  0.
420  4.19  0.  0.
421  4.20  0.  0.
422  4.21  0.  0.
423  4.22  0.  0.
424  4.23  0.  0.
425  4.24  0.  0.
426  4.25  0.  0.
427  4.26  0.  0.
428  4.27  0.  0.
429  4.28  0.  0.
430  4.29  0.  0.
431  4.30  0.  0.
432  4.31  0.  0.
433  4.32  0.  0.
434  4.33  0.  0.
435  4.34  0.  0.
436  4.35  0.  0.
437  4.36  0.  0.
438  4.37  0.  0.
439  4.38  0.  0.
440  4.39  0.  0.
441  4.40  0.  0.
442  4.41  0.  0.
443  4.42  0.  0.
444  4.43  0.  0.
445  4.44  0.  0.
446  4.45  0.  0.
447  4.46  0.  0.
448  4.47  0.  0.
449  4.48  0.  0.
450  4.49  0.  0.
451  4.50  0.  0.
452  4.51  0.  0.
453  4.52  0.  0.
454  4.53  0.  0.
455  4.54  0.  0.
456  4.55  0.  0.
457  4.56  0.  0.
458  4.57  0.  0.
459  4.58  0.  0.
460  4.59  0.  0.
461  4.60  0.  0.
462  4.61  0.  0.
463  4.62  0.  0.
464  4.63  0.  0.
465  4.64  0.  0.
466  4.65  0.  0.
467  4.66  0.  0.
468  4.67  0.  0.
469  4.68  0.  0.
470  4.69  0.  0.
471  4.70  0.  0.
472  4.71  0.  0.
473  4.72  0.  0.
474  4.73  0.  0.
475  4.74  0.  0.
476  4.75  0.  0.
477  4.76  0.  0.
478  4.77  0.  0.
479  4.78  0.  0.
480  4.79  0.  0.
481  4.80  0.  0.
482  4.81  0.  0.
483  4.82  0.  0.
484  4.83  0.  0.
485  4.84  0.  0.
486  4.85  0.  0.
487  4.86  0.  0.
488  4.87  0.  0.
489  4.88  0.  0.
490  4.89  0.  0.
491  4.90  0.  0.
492  4.91  0.  0.
493  4.92  0.  0.
494  4.93  0.  0.
495  4.94  0.  0.
496  4.95  0.  0.
497  4.96  0.  0.
498  4.97  0.  0.
499  4.98  0.  0.
500  4.99  0.  0.
501  5.00  0.  0.
502  5.01  0.  0.
503  5.02  0.  0.
504  5.03  0.  0.
505  5.04  0.  0.
506  5.05  0.  0.
507  5.06  0.  0.
508  5.07  0.  0.
509  5.08  0.  0.
510  5.09  0.  0.
511  5.10  0.  0.
512  5.11  0.  0.
513  5.12  0.  0.
514  5.13  0.  0.
515  5.14  0.  0.
516  5.15  0.  0.
517  5.16  0.  0.
518  5.17  0.  0.
519  5.18  0.  0.
520  5.19  0.  0.
521  5.20  0.  0.
522  5.21  0.  0.
523  5.22  0.  0.
524  5.23  0.  0.
525  5.24  0.  0.
526  5.25  0.  0.
527  5.26  0.  0.
528  5.27  0.  0.
529  5.28  0.  0.
530  5.29  0.  0.
531  5.30  0.  0.
532  5.31  0.  0.
533  5.32  0.  0.
534  5.33  0.  0.
535  5.34  0.  0.
536  5.35  0.  0.
537  5.36  0.  0.
538  5.37  0.  0.
539  5.38  0.  0.
540  5.39  0.  0.
541  5.40  0.  0.
542  5.41  0.  0.
543  5.42  0.  0.
544  5.43  0.  0.
545  5.44  0.  0.
546  5.45  0.  0.
547  5.46  0.  0.
548  5.47  0.  0.
549  5.48  0.  0.
550  5.49  0.  0.
551  5.50  0.  0.
552  5.51  0.  0.
553  5.52  0.  0.
554  5.53  0.  0.
555  5.54  0.  0.
556  5.55  0.  0.
557  5.56  0.  0.
558  5.57  0.  0.
559  5.58  0.  0.
560  5.59  0.  0.
561  5.60  0.  0.
562  5.61  0.  0.
563  5.62  0.  0.
564  5.63  0.  0.
565  5.64  0.  0.
566  5.65  0.  0.
567  5.66  0.  0.
568  5.67  0.  0.
569  5.68  0.  0.
570  5.69  0.  0.
571  5.70  0.  0.
572  5.71  0.  0.
573  5.72  0.  0.
574  5.73  0.  0.
575  5.74  0.  0.
576  5.75  0.  0.
577  5.76  0.  0.
578  5.77  0.  0.
579  5.78  0.  0.
580  5.79  0.  0.
581  5.80  0.  0.
582  5.81  0.  0.
583  5.82  0.  0.
584  5.83  0.  0.
585  5.84  0.  0.
586  5.85  0.  0.
587  5.86  0.  0.
588  5.87  0.  0.
589  5.88  0.  0.
590  5.89  0.  0.
591  5.90  0.  0.
592  5.91  0.  0.
593  5.92  0.  0.
594  5.93  0.  0.
595  5.94  0.  0.
596  5.95  0.  0.
597  5.96  0.  0.
598  5.97  0.  0.
599  5.98  0.  0.
600  5.99  0.  0.
1                         6.7310539189560E+00 -1.0677896207771E-01
1  0.0000000000000E+00  7.4930277260687E-10  2.4561029016157E-08
2  1.0000000000000E-02  1.5145734670633E-03  3.3352498107625E-03
3  2.0000000000000E-02  6.0520045322573E-03  1.3290350635468E-02
4  3.0000000000000E-02  1.3593462804733E-02  2.9714177453453E-02
5  4.0000000000000E-02  2.4107689256642E-02  5.2357576938843E-02
6  5.0000000000000E-02  3.7551182148689E-02  8.0877400239778E-02
7  6.0000000000000E-02  5.3868454333330E-02  1.1484205022642E-01
8  7.0000000000000E-02  7.2992359005421E-02  1.5373844670181E-01
9  8.0000000000000E-02  9.4844480220864E-02  1.9698028850871E-01
10  9.0000000000000E-02  1.1933558381792E-01  2.4391746908394E-01
11  1.0000000000000E-01  1.4636612376531E-01  2.9384648221740E-01
12  1.1000000000000E-01  1.7582679843557E-01  3.4602163791556E-01
13  1.2000000000000E-01  2.0759915087081E-01  3.9966689465495E-01
14  1.3000000000000E-01  2.4155620677636E-01  4.5398810418054E-01
15  1.4000000000000E-01  2.7756314375191E-01  5.0818545853500E-01
16  1.5000000000000E-01  3.1547798515145E-01  5.6146592631168E-01
17  1.6000000000000E-01  3.5515231195370E-01  6.1305546624890E-01
18  1.7000000000000E-01  3.9643198612190E-01  6.6221081120020E-01
19  1.8000000000000E-01  4.3915787913309E-01  7.0823062412872E-01
20  1.9000000000000E-01  4.8316659965604E-01  7.5046583992181E-01
21  2.0000000000000E-01  5.2829121474693E-01  7.8832902227724E-01
22  2.1000000000000E-01  5.7436195940374E-01  8.2130258338733E-01
23  2.2000000000000E-01  6.2120692986305E-01  8.4894573530189E-01
24  2.3000000000000E-01  6.6865275662512E-01  8.7090006529246E-01
25  2.4000000000000E-01  7.1652525384142E-01  8.8689365283745E-01
26  2.5000000000000E-01  7.6465004237933E-01  8.9674367253856E-01
27  2.6000000000000E-01  8.1285314457732E-01  9.0035745486531E-01
28  2.7000000000000E-01  8.6096154940552E-01  8.9773200461093E-01
29  2.8000000000000E-01  9.0880374743695E-01  8.8895200480499E-01
30  2.9000000000000E-01  9.5621023569909E-01  8.7418636106661E-01
31  3.0000000000000E-01  1.0030139931000E+00  8.5368336748889E-01
32  3.1000000000000E-01  1.0490509276957E+00  8.2776459965167E-01
33  3.2000000000000E-01  1.0941602975740E+00  7.9681766281360E-01
34  3.3000000000000E-01  1.1381851075616E+00  7.6128794332857E-01
35  3.4000000000000E-01  1.1809724843141E+00  7.2166952850353E-01
36  3.5000000000000E-01  1.2223740326047E+00  6.7849547415257E-01
37  3.6000000000000E-01  1.2622461757937E+00  6.3232760975236E-01
38  3.7000000000000E-01  1.3004504835253E+00  5.8374607817781E-01
39  3.8000000000000E-01  1.3368539896611E+00  5.3333881036872E-01
40  3.9000000000000E-01  1.3713295033312E+00  4.8169113489334E-01
41  4.0000000000000E-01  1.4037559157492E+00  4.2937571824288E-01
42  4.1000000000000E-01  1.4340185051214E+00  3.7694302390184E-01
43  4.2000000000000E-01  1.4620092415778E+00  3.2491246693382E-01
44  4.3000000000000E-01  1.4876270935744E+00  2.7376442622328E-01
45  4.4000000000000E-01  1.5107783366767E+00  2.2393325889250E-01
46  4.5000000000000E-01  1.5313768650431E+00  1.7580144110134E-01
47  4.6000000000000E-01  1.5493445052963E+00  1.2969493681966E-01
48  4.7000000000000E-01  1.5646113318165E+00  8.5879871657103E-02
49  4.8000000000000E-01  1.5771159818289E+00  4.4560562906995E-02
50  4.9000000000000E-01  1.5868059679979E+00  5.8789300918293E-03
51  5.0000000000000E-01  1.5936379856094E+00 -3.0084717009218E-02
52  5.1000000000000E-01  1.5975782108186E+00 -6.3309543101318E-02
53  5.2000000000000E-01  1.5986025858994E+00 -9.3830761782285E-02
54  5.3000000000000E-01  1.5966970869424E+00 -1.2173500207911E-01
55  5.4000000000000E-01  1.5918579690494E+00 -1.4715457357186E-01
56  5.5000000000000E-01  1.5840919837530E+00 -1.7026075854302E-01
57  5.6000000000000E-01  1.5734165631748E+00 -1.9125627913982E-01
58  5.7000000000000E-01  1.5598599653241E+00 -2.1036710427922E-01
59  5.8000000000000E-01  1.5434613749416E+00 -2.2783377464416E-01
60  5.9000000000000E-01  1.5242709544124E+00 -2.4390243435332E-01
61  6.0000000000000E-01  1.5023498395084E+00 -2.5881576452832E-01
62  6.1000000000000E-01  1.4777700750743E+00 -2.7280401690073E-01
63  6.2000000000000E-01  1.4506144862420E+00 -2.8607634472839E-01
64  6.3000000000000E-01  1.4209764813359E+00 -2.9881262362305E-01
65  6.4000000000000E-01  1.3889597833138E+00 -3.1115594650941E-01
66  6.5000000000000E-01  1.3546780873591E+00 -3.2320596496293E-01
67  6.6000000000000E-01  1.3182546431030E+00 -3.3501323383593E-01
68  6.7000000000000E-01  1.2798217608709E+00 -3.4657469762243E-01
69  6.8000000000000E-01  1.2395202423374E+00 -3.5783043577237E-01
70  6.9000000000000E-01  1.1974987369848E+00 -3.6866176051305E-01
71  7.0000000000000E-01  1.1539130268071E+00 -3.7889073509035E-01
72  7.1000000000000E-01  1.1089252427460E+00 -3.8828115316216E-01
73  7.2000000000000E-01  1.0627030173819E+00 -3.9654099184763E-01
74  7.3000000000000E-01  1.0154185794074E+00 -4.0332632216608E-01
75  7.4000000000000E-01  9.6724779637023E-01 -4.0824663180168E-01
76  7.5000000000000E-01  9.1836917306682E-01 -4.1087148683010E-01
77  7.6000000000000E-01  8.6896281378482E-01 -4.1073843175212E-01
78  7.7000000000000E-01  8.1920935731268E-01 -4.0736200139009E-01
79  7.8000000000000E-01  7.6928889425050E-01 -4.0024369439495E-01
80  7.9000000000000E-01  7.1937987665115E-01 -3.8888273671541E-01
81  8.0000000000000E-01  6.6965803038778E-01 -3.7278744480543E-01
82  8.1000000000000E-01  6.2029528087504E-01 -3.5148698292924E-01
83  8.2000000000000E-01  5.7145870285985E-01 -3.2454329697667E-01
84  8.3000000000000E-01  5.2330950494199E-01 -2.9156299895121E-01
85  8.4000000000000E-01  4.7600205928233E-01 -2.5220897192737E-01
86  8.5000000000000E-01  4.2968298660967E-01 -2.0621146489391E-01
87  8.6000000000000E-01  3.8449030614904E-01 -1.5337845055649E-01
88  8.7000000000000E-01  3.4055265947042E-01 -9.3605026844199E-02
89  8.8000000000000E-01  2.9798861650570E-01 -2.6881654452122E-02
90  8.9000000000000E-01  2.5690607111244E-01  4.6698961886566E-02
91  9.0000000000000E-01  2.1740173258711E-01  1.2693652179251E-01
92  9.1000000000000E-01  1.7956071846210E-01  2.1351945850631E-01
93  9.2000000000000E-01  1.4345625277234E-01  3.0602307509227E-01
94  9.3000000000000E-01  1.0914947276675E-01  4.0390958593338E-01
95  9.4000000000000E-01  7.6689345780725E-02  5.0653013199109E-01
96  9.5000000000000E-01  4.6112696697302E-02  6.1312880671268E-01
97  9.6000000000000E-01  1.7444345122243E-02  7.2284869664567E-01
98  9.7000000000000E-01 -9.3026499004186E-03  8.3473990724075E-01
99  9.8000000000000E-01 -3.4126641084081E-02  9.4776951051453E-01
100  9.9000000000000E-01 -5.7036944699569E-02  1.0608333177056E+00
101  1.0000000000000E+00 -7.8053298862635E-02  1.1727693472622E+00
102  1.0100000000000E+00 -9.7205235314783E-02  1.2823728269881E+00
103  1.0200000000000E+00 -1.1453137274623E-01  1.3884125393770E+00
104  1.0300000000000E+00 -1.3007864066115E-01  1.4896482915349E+00
105  1.0400000000000E+00 -1.4390144363359E-01  1.5848492660408E+00
106  1.0500000000000E+00 -1.5606077653878E-01  1.6728129870218E+00
107  1.0600000000000E+00 -1.6662330196173E-01  1.7523846169147E+00
108  1.0700000000000E+00 -1.7566040147632E-01  1.8224762841833E+00
109  1.0800000000000E+00 -1.8324721284901E-01  1.8820861308983E+00
110  1.0900000000000E+00 -1.8946166544953E-01  1.9303167617415E+00
111  1.1000000000000E+00 -1.9438352624316E-01  1.9663927728618E+00
112  1.1100000000000E+00 -1.9809346869695E-01  1.9896770401662E+00
113  1.1200000000000E+00 -2.0067217675387E-01  1.9996854521587E+00
114  1.1300000000000E+00 -2.0219949571846E-01  1.9960997823547E+00
115  1.1400000000000E+00 -2.0275364145463E-01  1.9787784106120E+00
116  1.1500000000000E+00 -2.0241047872643E-01  1.9477646213518E+00
117  1.1600000000000E+00 -2.0124287881725E-01  1.9032922295571E+00
118  1.1700000000000E+00 -1.9932016574520E-01  1.8457883125293E+00
119  1.1800000000000E+00 -1.9670765945909E-01  1.7758728564898E+00
120  1.1900000000000E+00 -1.9346632334561E-01  1.6943551622897E+00
121  1.2000000000000E+00 -1.8965252221991E-01  1.6022268932417E+00
122  1.2100000000000E+00 -1.8531789569143E-01  1.5006516908918E+00
123  1.2200000000000E+00 -1.8050935041911E-01  1.3909513304958E+00
124  1.2300000000000E+00 -1.7526917327156E-01  1.2745884377753E+00
125  1.2400000000000E+00 -1.6963526580333E-01  1.1531458415371E+00
126  1.2500000000000E+00 -1.6364149874506E-01  1.0283026929413E+00
127  1.2600000000000E+00 -1.5731818336218E-01  9.0180754212077E-01
128  1.2700000000000E+00 -1.5069265458575E-01  7.7544862559920E-01
129  1.2800000000000E+00 -1.4378995873389E-01  6.5102168422290E-01
130  1.2900000000000E+00 -1.3663363641461E-01  5.3029570116189E-01
131  1.3000000000000E+00 -1.2924658883820E-01  4.1497702255481E-01
132  1.3100000000000E+00 -1.2165201324617E-01  3.0667240010644E-01
133  1.3200000000000E+00 -1.1387439046396E-01  2.0685157582533E-01
134  1.3300000000000E+00 -1.0594050471277E-01  1.1681011370680E-01
135  1.3400000000000E+00 -9.7880472754727E-02  3.7633271926809E-02
136  1.3500000000000E+00 -8.9728756148296E-02 -2.9838196848829E-02
137  1.3600000000000E+00 -8.1525126887961E-02 -8.5039331140391E-02
138  1.3700000000000E+00 -7.3315552932673E-02 -1.2770824226337E-01
139  1.3800000000000E+00 -6.5152966119808E-02 -1.5790819274938E-01
140  1.3900000000000E+00 -5.7097870622597E-02 -1.7604315607361E-01
141  1.4000000000000E+00 -4.9218745142689E-02 -1.8286541510305E-01
142  1.4100000000000E+00 -4.1592193078219E-02 -1.7947371054911E-01
143  1.4200000000000E+00 -3.4302762726448E-02 -1.6729998726161E-01
144  1.4300000000000E+00 -2.7442561261673E-02 -1.4808519087110E-01
145  1.4400000000000E+00 -2.1114093333808E-02 -1.2389635863485E-01
146  1.4500000000000E+00 -1.5422629027076E-02 -9.6981359209038E-02
147  1.4600000000000E+00 -1.0472410493828E-02 -6.9658743010901E-02
148  1.4700000000000E+00 -6.3672947484065E-03 -4.4265683150175E-02
149  1.4800000000000E+00 -3.2082496977609E-03 -2.3043127285326E-02